#INFO: **** input file is /Users/ethanvo/projects/interpolation/01_get_bands/standard_dft_mp2.py ****
#!/usr/bin/env python
import numpy as np
from pyscf.pbc import gto, dft, df
from pyscf.pbc.tools import pyscf_ase, lattice, get_coulG
from pyscf.gto.basis import parse_nwchem
from pyscf.pbc.mp.kmp2 import KRMP2
from pyscf import lib
import h5py
import sys
from fileutils import load, dump

##############################
# Create a "Cell"
##############################

cell = gto.Cell()
# Candidate formula of solid: c, si, sic, bn, bp, aln, alp, mgo, mgs, lih, lif, licl
formula = "c"
ase_atom = lattice.get_ase_atom(formula)
cell.atom = pyscf_ase.ase_atoms_to_pyscf(ase_atom)
cell.a = ase_atom.cell[:]
cell.unit = 'B'
cell.basis = {'C': parse_nwchem.load("/Users/ethanvo/builds/ccgto/basis/gth-hf-rev/cc-pvdz-lc.dat", 'C')}
cell.pseudo = "gth-hf-rev"
cell.verbose = 7
cell.build()

##############################
#  K-point SCF 
##############################
scf_mesh = int(sys.argv[1])
kmesh = [scf_mesh, scf_mesh, scf_mesh]
scaled_center=[0.0, 0.0, 0.0]
kpts = cell.make_kpts(kmesh, scaled_center=scaled_center)

mymf = dft.KRKS(cell, kpts=kpts)
mymf.xc = 'pbe'
ekrhf = mymf.kernel()

##############################
#  K-point MP2
##############################
mymp = KRMP2(mymf)
mydf = df.GDF(cell, kpts)
mymp._scf.with_df = mydf
mymp.with_df_ints = True
ekmp2, t2 = mymp.kernel()

total_energy = ekrhf + ekmp2
datafile = sys.argv[2]
datadict = {}
datadict['ekrhf'] = ekrhf
datadict['ekmp2'] = ekmp2
datadict['total_energy'] = total_energy
dump(datadict, f'data/{datafile}')
#INFO: ******************** input file end ********************


System: uname_result(system='Darwin', node='Concord-Dawn.local', release='23.1.0', version='Darwin Kernel Version 23.1.0: Mon Oct  9 21:27:24 PDT 2023; root:xnu-10002.41.9~6/RELEASE_ARM64_T6000', machine='arm64')  Threads 10
Python 3.11.5 (main, Aug 24 2023, 15:09:45) [Clang 14.0.3 (clang-1403.0.22.14.1)]
numpy 1.26.0  scipy 1.10.1
Date: Tue Nov  7 14:55:14 2023
PySCF version 2.0.1
PySCF path  /Users/ethanvo/builds/pyscf/projected_cvs/pyscf
GIT ORIG_HEAD 39249f5012c1a95ee10ab9573a362ed9ef07a422
GIT HEAD (branch projected-cvs) 12799a671021ff0b92a23c4db7c36e2a9239ed2d

[ENV] PYSCF_MAX_MEMORY 64000
[ENV] PYSCF_TMPDIR /Users/ethanvo/projects/interpolation/01_get_bands/tmp
[CONFIG] DEBUG = False
[CONFIG] MAX_MEMORY = 64000
[CONFIG] TMPDIR = /Users/ethanvo/projects/interpolation/01_get_bands/tmp
[CONFIG] UNIT = angstrom
[CONFIG] VERBOSE = 3
[CONFIG] conf_file = None
[INPUT] verbose = 7
[INPUT] max_memory = 64000 
[INPUT] num. atoms = 2
[INPUT] num. electrons = 8
[INPUT] charge = 0
[INPUT] spin (= nelec alpha-beta = 2S) = 0
[INPUT] symmetry False subgroup None
[INPUT] Mole.unit = B
[INPUT]  1 C      0.000000000000   0.000000000000   0.000000000000 AA    0.000000000000   0.000000000000   0.000000000000 Bohr
[INPUT]  2 C      0.891699936031   0.891699936031   0.891699936031 AA    1.685068664391   1.685068664391   1.685068664391 Bohr
[INPUT] ---------------- BASIS SET ---------------- 
[INPUT] l, kappa, [nprim/nctr], expnt,             c_1 c_2 ...
[INPUT] C
[INPUT] 0    0    [3    /1   ]  9.031436          -0.01960629
                                3.821255          -0.1291762
                                0.473725          0.5822572
[INPUT] 0    0    [1    /1   ]  0.149679             1
[INPUT] 1    0    [3    /1   ]  4.353457          0.08730943
                                1.266307          0.2797034
                                0.398715          0.5024424
[INPUT] 1    0    [1    /1   ]  0.124238             1
[INPUT] 2    0    [1    /1   ]  0.556013             1

Ewald components = 8.67997097708575e-26, -47.3756282134421, 34.5884981493536
nuclear repulsion = -12.7871300640885
number of shells = 10
number of NR pGTOs = 42
number of NR cGTOs = 26
basis = {'C': [[0, [9.031436, -0.01960629], [3.821255, -0.1291762], [0.473725, 0.5822572]], [0, [0.149679, 1.0]], [1, [4.353457, 0.08730943], [1.266307, 0.2797034], [0.398715, 0.5024424]], [1, [0.124238, 1.0]], [2, [0.556013, 1.0]]]}
ecp = {}
bas 0, expnt(s) = [9.031436 3.821255 0.473725]
bas 1, expnt(s) = [0.149679]
bas 2, expnt(s) = [4.353457 1.266307 0.398715]
bas 3, expnt(s) = [0.124238]
bas 4, expnt(s) = [0.556013]
bas 5, expnt(s) = [9.031436 3.821255 0.473725]
bas 6, expnt(s) = [0.149679]
bas 7, expnt(s) = [4.353457 1.266307 0.398715]
bas 8, expnt(s) = [0.124238]
bas 9, expnt(s) = [0.556013]
CPU time:         0.25
lattice vectors  a1 [0.000000000, 3.370137329, 3.370137329]
                 a2 [3.370137329, 0.000000000, 3.370137329]
                 a3 [3.370137329, 3.370137329, 0.000000000]
dimension = 3
low_dim_ft_type = None
Cell volume = 76.5549
rcut = 21.970857926874924 (nimgs = [6 6 6])
lattice sum = 1313 cells
precision = 1e-08
pseudo = gth-hf-rev
ke_cutoff = 382.8667051932727
    = [35 35 35] mesh (42875 PWs)


******** <class 'pyscf.pbc.dft.krks.KRKS'> ********
method = KRKS-KohnShamDFT
initial guess = minao
damping factor = 0
level_shift factor = 0
DIIS = <class 'pyscf.scf.diis.CDIIS'>
diis_start_cycle = 1
diis_space = 8
SCF conv_tol = 1e-07
SCF conv_tol_grad = None
SCF max_cycles = 50
direct_scf = True
direct_scf_tol = 1e-13
chkfile to save SCF result = /Users/ethanvo/projects/interpolation/01_get_bands/tmp/tmpfz0ph5af
max_memory 64000 MB (current use 0 MB)


******** PBC SCF flags ********
N kpts = 64
kpts = [[ 0.00000000e+00  0.00000000e+00  0.00000000e+00]
 [ 2.33046338e-01  2.33046338e-01 -2.33046338e-01]
 [ 4.66092676e-01  4.66092676e-01 -4.66092676e-01]
 [ 6.99139014e-01  6.99139014e-01 -6.99139014e-01]
 [ 2.33046338e-01 -2.33046338e-01  2.33046338e-01]
 [ 4.66092676e-01  0.00000000e+00  0.00000000e+00]
 [ 6.99139014e-01  2.33046338e-01 -2.33046338e-01]
 [ 9.32185352e-01  4.66092676e-01 -4.66092676e-01]
 [ 4.66092676e-01 -4.66092676e-01  4.66092676e-01]
 [ 6.99139014e-01 -2.33046338e-01  2.33046338e-01]
 [ 9.32185352e-01  0.00000000e+00  0.00000000e+00]
 [ 1.16523169e+00  2.33046338e-01 -2.33046338e-01]
 [ 6.99139014e-01 -6.99139014e-01  6.99139014e-01]
 [ 9.32185352e-01 -4.66092676e-01  4.66092676e-01]
 [ 1.16523169e+00 -2.33046338e-01  2.33046338e-01]
 [ 1.39827803e+00 -2.77555756e-17  2.77555756e-17]
 [-2.33046338e-01  2.33046338e-01  2.33046338e-01]
 [ 0.00000000e+00  4.66092676e-01  0.00000000e+00]
 [ 2.33046338e-01  6.99139014e-01 -2.33046338e-01]
 [ 4.66092676e-01  9.32185352e-01 -4.66092676e-01]
 [ 0.00000000e+00  0.00000000e+00  4.66092676e-01]
 [ 2.33046338e-01  2.33046338e-01  2.33046338e-01]
 [ 4.66092676e-01  4.66092676e-01  0.00000000e+00]
 [ 6.99139014e-01  6.99139014e-01 -2.33046338e-01]
 [ 2.33046338e-01 -2.33046338e-01  6.99139014e-01]
 [ 4.66092676e-01  0.00000000e+00  4.66092676e-01]
 [ 6.99139014e-01  2.33046338e-01  2.33046338e-01]
 [ 9.32185352e-01  4.66092676e-01  2.77555756e-17]
 [ 4.66092676e-01 -4.66092676e-01  9.32185352e-01]
 [ 6.99139014e-01 -2.33046338e-01  6.99139014e-01]
 [ 9.32185352e-01  0.00000000e+00  4.66092676e-01]
 [ 1.16523169e+00  2.33046338e-01  2.33046338e-01]
 [-4.66092676e-01  4.66092676e-01  4.66092676e-01]
 [-2.33046338e-01  6.99139014e-01  2.33046338e-01]
 [ 0.00000000e+00  9.32185352e-01  0.00000000e+00]
 [ 2.33046338e-01  1.16523169e+00 -2.33046338e-01]
 [-2.33046338e-01  2.33046338e-01  6.99139014e-01]
 [ 0.00000000e+00  4.66092676e-01  4.66092676e-01]
 [ 2.33046338e-01  6.99139014e-01  2.33046338e-01]
 [ 4.66092676e-01  9.32185352e-01  2.77555756e-17]
 [ 0.00000000e+00  0.00000000e+00  9.32185352e-01]
 [ 2.33046338e-01  2.33046338e-01  6.99139014e-01]
 [ 4.66092676e-01  4.66092676e-01  4.66092676e-01]
 [ 6.99139014e-01  6.99139014e-01  2.33046338e-01]
 [ 2.33046338e-01 -2.33046338e-01  1.16523169e+00]
 [ 4.66092676e-01  0.00000000e+00  9.32185352e-01]
 [ 6.99139014e-01  2.33046338e-01  6.99139014e-01]
 [ 9.32185352e-01  4.66092676e-01  4.66092676e-01]
 [-6.99139014e-01  6.99139014e-01  6.99139014e-01]
 [-4.66092676e-01  9.32185352e-01  4.66092676e-01]
 [-2.33046338e-01  1.16523169e+00  2.33046338e-01]
 [-2.77555756e-17  1.39827803e+00  2.77555756e-17]
 [-4.66092676e-01  4.66092676e-01  9.32185352e-01]
 [-2.33046338e-01  6.99139014e-01  6.99139014e-01]
 [-5.55111512e-17  9.32185352e-01  4.66092676e-01]
 [ 2.33046338e-01  1.16523169e+00  2.33046338e-01]
 [-2.33046338e-01  2.33046338e-01  1.16523169e+00]
 [-2.77555756e-17  4.66092676e-01  9.32185352e-01]
 [ 2.33046338e-01  6.99139014e-01  6.99139014e-01]
 [ 4.66092676e-01  9.32185352e-01  4.66092676e-01]
 [-2.77555756e-17  2.77555756e-17  1.39827803e+00]
 [ 2.33046338e-01  2.33046338e-01  1.16523169e+00]
 [ 4.66092676e-01  4.66092676e-01  9.32185352e-01]
 [ 6.99139014e-01  6.99139014e-01  6.99139014e-01]]
Exchange divergence treatment (exxdiv) = ewald
Monkhorst pack size [4 4 4] ew_eta 1.567785923794447 ew_cut 4.486233713020537
Ewald components = 0, -0.88465892227202, 0.799631562152575
    madelung (= occupied orbital energy shift) = 0.17005472023889068
    Total energy shift due to Ewald probe charge = -1/2 * Nelec*madelung = -0.680218880956
DF object = <pyscf.pbc.df.fft.FFTDF object at 0x105914450>


******** <class 'pyscf.pbc.df.fft.FFTDF'> ********
mesh = [35 35 35] (42875 PWs)
len(kpts) = 64
    kpts = [[ 0.00000000e+00  0.00000000e+00  0.00000000e+00]
 [ 2.33046338e-01  2.33046338e-01 -2.33046338e-01]
 [ 4.66092676e-01  4.66092676e-01 -4.66092676e-01]
 [ 6.99139014e-01  6.99139014e-01 -6.99139014e-01]
 [ 2.33046338e-01 -2.33046338e-01  2.33046338e-01]
 [ 4.66092676e-01  0.00000000e+00  0.00000000e+00]
 [ 6.99139014e-01  2.33046338e-01 -2.33046338e-01]
 [ 9.32185352e-01  4.66092676e-01 -4.66092676e-01]
 [ 4.66092676e-01 -4.66092676e-01  4.66092676e-01]
 [ 6.99139014e-01 -2.33046338e-01  2.33046338e-01]
 [ 9.32185352e-01  0.00000000e+00  0.00000000e+00]
 [ 1.16523169e+00  2.33046338e-01 -2.33046338e-01]
 [ 6.99139014e-01 -6.99139014e-01  6.99139014e-01]
 [ 9.32185352e-01 -4.66092676e-01  4.66092676e-01]
 [ 1.16523169e+00 -2.33046338e-01  2.33046338e-01]
 [ 1.39827803e+00 -2.77555756e-17  2.77555756e-17]
 [-2.33046338e-01  2.33046338e-01  2.33046338e-01]
 [ 0.00000000e+00  4.66092676e-01  0.00000000e+00]
 [ 2.33046338e-01  6.99139014e-01 -2.33046338e-01]
 [ 4.66092676e-01  9.32185352e-01 -4.66092676e-01]
 [ 0.00000000e+00  0.00000000e+00  4.66092676e-01]
 [ 2.33046338e-01  2.33046338e-01  2.33046338e-01]
 [ 4.66092676e-01  4.66092676e-01  0.00000000e+00]
 [ 6.99139014e-01  6.99139014e-01 -2.33046338e-01]
 [ 2.33046338e-01 -2.33046338e-01  6.99139014e-01]
 [ 4.66092676e-01  0.00000000e+00  4.66092676e-01]
 [ 6.99139014e-01  2.33046338e-01  2.33046338e-01]
 [ 9.32185352e-01  4.66092676e-01  2.77555756e-17]
 [ 4.66092676e-01 -4.66092676e-01  9.32185352e-01]
 [ 6.99139014e-01 -2.33046338e-01  6.99139014e-01]
 [ 9.32185352e-01  0.00000000e+00  4.66092676e-01]
 [ 1.16523169e+00  2.33046338e-01  2.33046338e-01]
 [-4.66092676e-01  4.66092676e-01  4.66092676e-01]
 [-2.33046338e-01  6.99139014e-01  2.33046338e-01]
 [ 0.00000000e+00  9.32185352e-01  0.00000000e+00]
 [ 2.33046338e-01  1.16523169e+00 -2.33046338e-01]
 [-2.33046338e-01  2.33046338e-01  6.99139014e-01]
 [ 0.00000000e+00  4.66092676e-01  4.66092676e-01]
 [ 2.33046338e-01  6.99139014e-01  2.33046338e-01]
 [ 4.66092676e-01  9.32185352e-01  2.77555756e-17]
 [ 0.00000000e+00  0.00000000e+00  9.32185352e-01]
 [ 2.33046338e-01  2.33046338e-01  6.99139014e-01]
 [ 4.66092676e-01  4.66092676e-01  4.66092676e-01]
 [ 6.99139014e-01  6.99139014e-01  2.33046338e-01]
 [ 2.33046338e-01 -2.33046338e-01  1.16523169e+00]
 [ 4.66092676e-01  0.00000000e+00  9.32185352e-01]
 [ 6.99139014e-01  2.33046338e-01  6.99139014e-01]
 [ 9.32185352e-01  4.66092676e-01  4.66092676e-01]
 [-6.99139014e-01  6.99139014e-01  6.99139014e-01]
 [-4.66092676e-01  9.32185352e-01  4.66092676e-01]
 [-2.33046338e-01  1.16523169e+00  2.33046338e-01]
 [-2.77555756e-17  1.39827803e+00  2.77555756e-17]
 [-4.66092676e-01  4.66092676e-01  9.32185352e-01]
 [-2.33046338e-01  6.99139014e-01  6.99139014e-01]
 [-5.55111512e-17  9.32185352e-01  4.66092676e-01]
 [ 2.33046338e-01  1.16523169e+00  2.33046338e-01]
 [-2.33046338e-01  2.33046338e-01  1.16523169e+00]
 [-2.77555756e-17  4.66092676e-01  9.32185352e-01]
 [ 2.33046338e-01  6.99139014e-01  6.99139014e-01]
 [ 4.66092676e-01  9.32185352e-01  4.66092676e-01]
 [-2.77555756e-17  2.77555756e-17  1.39827803e+00]
 [ 2.33046338e-01  2.33046338e-01  1.16523169e+00]
 [ 4.66092676e-01  4.66092676e-01  9.32185352e-01]
 [ 6.99139014e-01  6.99139014e-01  6.99139014e-01]]
XC functionals = pbe
small_rho_cutoff = 1e-07
Uniform grid, mesh = [35 35 35]
Set gradient conv threshold to 0.000316228
    CPU time for setting up grids      0.56 sec, wall time      0.11 sec
nelec by numeric integration = 8.0
    CPU time for vxc      9.21 sec, wall time      1.97 sec
    CPU time for vj and vk      4.81 sec, wall time      0.91 sec
Ewald components = 8.67997097708575e-26, -47.3756282134421, 34.5884981493536
E1 = (4.897378551259297-2.729612009270064e-18j)  Ecoul = 1.5381193517131255  Exc = -3.799700212989382
init E= -10.1513323741055
cond(S) = [  26137.1170775   108150.67726391  414733.50778054  108150.67726384
  108150.677264   1139348.21825335  248137.23940498  134736.64262865
  414733.50779911  248137.23940827 5364088.04453874  248137.23940729
  108150.67726387  134736.6426289   248137.23940349 1139348.21826068
  108150.67726314 1139348.21826827  248137.23939908  134736.64262995
 1139348.21828236  108150.67726394  134736.64262979  248137.23940684
  248137.23940053  134736.64262787  248137.23939843   21246.16181237
  134736.64262967  248137.23940603   21246.16181237  248137.23940439
  414733.50776296  248137.23940387 5364088.04493495  248137.23940233
  248137.23940421  134736.64263001  248137.23940441   21246.16181239
 5364088.04551413  248137.23940382  414733.50777889  248137.23940652
  248137.23940548   21246.1618124   248137.23940576  134736.64263012
  108150.6772631   134736.64263036  248137.23939937 1139348.21826487
  134736.6426299   248137.23940191   21246.16181237  248137.23941075
  248137.23940025   21246.16181235  248137.23939635  134736.64262761
 1139348.21828457  248137.23940642  134736.64262927  108150.67726433]
    CPU time for initialize scf     19.51 sec, wall time      4.13 sec
HOMO = 0.572136267743  LUMO = 0.706595607055
     k-point                  mo_energy
   0 ( 0.000  0.000  0.000)   [-0.24766312  0.57213627  0.57213627  0.57213627] [0.75903984 0.75903984 0.75903984 1.04723492 1.52268223 1.52268223
 1.80183809 1.80183809 1.80183809 1.82499331 2.34502026 2.34502026
 2.34502026 3.20652511 3.20652511 3.20652511 3.29662862 3.29662862
 4.35521322 4.35521322 4.35521322 4.95478385]
   1 ( 0.000  0.000  0.250)   [-0.18615722  0.31138763  0.5023202   0.5023202 ] [0.8439411  0.8439411  0.85489652 1.11790745 1.36119035 1.45225442
 1.45225442 1.97991064 2.16493791 2.16493791 2.22176721 2.22176721
 2.26606738 3.11655287 3.11655287 3.18947856 3.38261659 3.38261659
 3.9043724  3.9043724  5.11612926 9.17481233]
   2 ( 0.000  0.000  0.500)   [-0.02955724  0.04939761  0.4621782   0.4621782 ] [0.86181626 0.86181626 0.87637692 1.21755385 1.38923472 1.55354225
 1.55354225 1.82014486 1.82014486 2.18603859 2.26453481 2.64419075
 2.7472774  2.7472774  2.76273354 2.76273354 3.34069831 3.34069831
 3.4051255  3.4051255  4.89726707 9.61041295]
   3 ( 0.000  0.000  0.750)   [-0.18615722  0.31138763  0.5023202   0.5023202 ] [0.8439411  0.8439411  0.85489652 1.11790745 1.36119035 1.45225442
 1.45225442 1.97991064 2.16493791 2.16493791 2.22176721 2.22176721
 2.26606738 3.11655287 3.11655287 3.18947856 3.38261659 3.38261659
 3.9043724  3.9043724  5.11612926 9.17481233]
   4 (-0.000  0.250  0.000)   [-0.18615722  0.31138763  0.5023202   0.5023202 ] [0.8439411  0.8439411  0.85489652 1.11790745 1.36119035 1.45225442
 1.45225442 1.97991064 2.16493791 2.16493791 2.22176721 2.22176721
 2.26606738 3.11655287 3.11655287 3.18947856 3.38261659 3.38261659
 3.9043724  3.9043724  5.11612926 9.17481233]
   5 ( 0.000  0.250  0.250)   [-0.16440189  0.39617328  0.407869    0.407869  ] [0.70659561 0.9179402  0.99646862 0.99646862 1.3508037  1.40436685
 1.64051465 1.99480109 1.99480109 2.13105077 2.13105077 2.17441752
 2.5405693  2.65707002 2.83875291 3.1541132  3.1541132  3.60801427
 4.30339421 4.30339421 6.63057843 7.75252007]
   6 ( 0.000  0.250  0.500)   [-0.02286304  0.15177201  0.30534144  0.37961251] [0.76187043 0.9710526  1.03722832 1.05575623 1.32685977 1.45670174
 1.60052508 1.83688786 1.89885446 2.15487322 2.34654673 2.42692056
 2.54848253 2.57741236 2.68364248 2.7958284  2.99984012 3.31519914
 3.41837307 3.68854465 7.71180693 9.41090509]
   7 ( 0.000  0.250  0.750)   [-0.08243197  0.23319126  0.26945645  0.45316912] [0.83621407 0.92895296 1.02021942 1.07029899 1.29664712 1.38180566
 1.49837135 1.87700908 1.96970018 2.15143363 2.15574548 2.23490297
 2.5023561  2.75813045 2.8340473  2.9973341  3.13849247 3.2023068
 3.48475936 4.06770366 9.0998308  9.24463049]
   8 (-0.000  0.500  0.000)   [-0.02955724  0.04939761  0.4621782   0.4621782 ] [0.86181626 0.86181626 0.87637692 1.21755385 1.38923472 1.55354225
 1.55354225 1.82014486 1.82014486 2.18603859 2.26453481 2.64419075
 2.7472774  2.7472774  2.76273354 2.76273354 3.34069831 3.34069831
 3.4051255  3.4051255  4.89726707 9.61041295]
   9 (-0.000  0.500  0.250)   [-0.02286304  0.15177201  0.30534144  0.37961251] [0.76187043 0.9710526  1.03722832 1.05575623 1.32685977 1.45670174
 1.60052508 1.83688786 1.89885446 2.15487322 2.34654673 2.42692056
 2.54848253 2.57741236 2.68364248 2.7958284  2.99984012 3.31519914
 3.41837307 3.68854465 7.71180693 9.41090509]
  10 ( 0.000  0.500  0.500)   [0.07891488 0.07891511 0.3246933  0.3246933 ] [0.70846063 0.70846078 1.20080594 1.20080594 1.44587553 1.44587883
 1.78322506 1.78322506 2.00216987 2.00216987 2.47905089 2.47905089
 2.55478229 2.55478241 2.61830289 2.61830289 3.31419485 3.31419541
 4.68640737 4.68640737 6.7257115  6.72585248]
  11 ( 0.000  0.500  0.750)   [-0.02286304  0.15177201  0.30534144  0.37961251] [0.76187043 0.9710526  1.03722832 1.05575623 1.32685977 1.45670174
 1.60052508 1.83688786 1.89885446 2.15487322 2.34654673 2.42692056
 2.54848253 2.57741236 2.68364248 2.7958284  2.99984012 3.31519914
 3.41837307 3.68854465 7.71180693 9.41090509]
  12 (-0.000  0.750  0.000)   [-0.18615722  0.31138763  0.5023202   0.5023202 ] [0.8439411  0.8439411  0.85489652 1.11790745 1.36119035 1.45225442
 1.45225442 1.97991064 2.16493791 2.16493791 2.22176721 2.22176721
 2.26606738 3.11655287 3.11655287 3.18947856 3.38261659 3.38261659
 3.9043724  3.9043724  5.11612926 9.17481233]
  13 ( 0.000  0.750  0.250)   [-0.08243197  0.23319126  0.26945645  0.45316912] [0.83621407 0.92895296 1.02021942 1.07029899 1.29664712 1.38180566
 1.49837135 1.87700908 1.96970018 2.15143363 2.15574548 2.23490297
 2.5023561  2.75813045 2.8340473  2.9973341  3.13849247 3.2023068
 3.48475936 4.06770366 9.0998308  9.24463049]
  14 ( 0.000  0.750  0.500)   [-0.02286304  0.15177201  0.30534144  0.37961251] [0.76187043 0.9710526  1.03722832 1.05575623 1.32685977 1.45670174
 1.60052508 1.83688786 1.89885446 2.15487322 2.34654673 2.42692056
 2.54848253 2.57741236 2.68364248 2.7958284  2.99984012 3.31519914
 3.41837307 3.68854465 7.71180693 9.41090509]
  15 ( 0.000  0.750  0.750)   [-0.16440189  0.39617328  0.407869    0.407869  ] [0.70659561 0.9179402  0.99646862 0.99646862 1.3508037  1.40436685
 1.64051465 1.99480109 1.99480109 2.13105077 2.13105077 2.17441752
 2.5405693  2.65707002 2.83875291 3.1541132  3.1541132  3.60801427
 4.30339421 4.30339421 6.63057843 7.75252007]
  16 ( 0.250 -0.000 -0.000)   [-0.18615722  0.31138763  0.5023202   0.5023202 ] [0.8439411  0.8439411  0.85489652 1.11790745 1.36119035 1.45225442
 1.45225442 1.97991064 2.16493791 2.16493791 2.22176721 2.22176721
 2.26606738 3.11655287 3.11655287 3.18947856 3.38261659 3.38261659
 3.9043724  3.9043724  5.11612926 9.17481233]
  17 ( 0.250  0.000  0.250)   [-0.16440189  0.39617328  0.407869    0.407869  ] [0.70659561 0.9179402  0.99646862 0.99646862 1.3508037  1.40436685
 1.64051465 1.99480109 1.99480109 2.13105077 2.13105077 2.17441752
 2.5405693  2.65707002 2.83875291 3.1541132  3.1541132  3.60801427
 4.30339421 4.30339421 6.63057843 7.75252007]
  18 ( 0.250  0.000  0.500)   [-0.02286304  0.15177201  0.30534144  0.37961251] [0.76187043 0.9710526  1.03722832 1.05575623 1.32685977 1.45670174
 1.60052508 1.83688786 1.89885446 2.15487322 2.34654673 2.42692056
 2.54848253 2.57741236 2.68364248 2.7958284  2.99984012 3.31519914
 3.41837307 3.68854465 7.71180693 9.41090509]
  19 ( 0.250  0.000  0.750)   [-0.08243197  0.23319126  0.26945645  0.45316912] [0.83621407 0.92895296 1.02021942 1.07029899 1.29664712 1.38180566
 1.49837135 1.87700908 1.96970018 2.15143363 2.15574548 2.23490297
 2.5023561  2.75813045 2.8340473  2.9973341  3.13849247 3.2023068
 3.48475936 4.06770366 9.0998308  9.24463049]
  20 ( 0.250  0.250  0.000)   [-0.16440189  0.39617328  0.407869    0.407869  ] [0.70659561 0.9179402  0.99646862 0.99646862 1.3508037  1.40436685
 1.64051465 1.99480109 1.99480109 2.13105077 2.13105077 2.17441752
 2.5405693  2.65707002 2.83875291 3.1541132  3.1541132  3.60801427
 4.30339421 4.30339421 6.63057843 7.75252007]
  21 ( 0.250  0.250  0.250)   [-0.18615722  0.31138763  0.5023202   0.5023202 ] [0.8439411  0.8439411  0.85489652 1.11790745 1.36119035 1.45225442
 1.45225442 1.97991064 2.16493791 2.16493791 2.22176721 2.22176721
 2.26606738 3.11655287 3.11655287 3.18947856 3.38261659 3.38261659
 3.9043724  3.9043724  5.11612926 9.17481233]
  22 ( 0.250  0.250  0.500)   [-0.08243197  0.23319126  0.26945645  0.45316912] [0.83621407 0.92895296 1.02021942 1.07029899 1.29664712 1.38180566
 1.49837135 1.87700908 1.96970018 2.15143363 2.15574548 2.23490297
 2.5023561  2.75813045 2.8340473  2.9973341  3.13849247 3.2023068
 3.48475936 4.06770366 9.0998308  9.24463049]
  23 ( 0.250  0.250  0.750)   [-0.02286304  0.15177201  0.30534144  0.37961251] [0.76187043 0.9710526  1.03722832 1.05575623 1.32685977 1.45670174
 1.60052508 1.83688786 1.89885446 2.15487322 2.34654673 2.42692056
 2.54848253 2.57741236 2.68364248 2.7958284  2.99984012 3.31519914
 3.41837307 3.68854465 7.71180693 9.41090509]
  24 ( 0.250  0.500  0.000)   [-0.02286304  0.15177201  0.30534144  0.37961251] [0.76187043 0.9710526  1.03722832 1.05575623 1.32685977 1.45670174
 1.60052508 1.83688786 1.89885446 2.15487322 2.34654673 2.42692056
 2.54848253 2.57741236 2.68364248 2.7958284  2.99984012 3.31519914
 3.41837307 3.68854465 7.71180693 9.41090509]
  25 ( 0.250  0.500  0.250)   [-0.08243197  0.23319126  0.26945645  0.45316912] [0.83621407 0.92895296 1.02021942 1.07029899 1.29664712 1.38180566
 1.49837135 1.87700908 1.96970018 2.15143363 2.15574548 2.23490297
 2.5023561  2.75813045 2.8340473  2.9973341  3.13849247 3.2023068
 3.48475936 4.06770366 9.0998308  9.24463049]
  26 ( 0.250  0.500  0.500)   [-0.02286304  0.15177201  0.30534144  0.37961251] [0.76187043 0.9710526  1.03722832 1.05575623 1.32685977 1.45670174
 1.60052508 1.83688786 1.89885446 2.15487322 2.34654673 2.42692056
 2.54848253 2.57741236 2.68364248 2.7958284  2.99984012 3.31519914
 3.41837307 3.68854465 7.71180693 9.41090509]
  27 ( 0.250  0.500  0.750)   [0.11106884 0.11106905 0.24016321 0.24016333] [0.93827491 0.938276   1.01453882 1.01454002 1.36545833 1.36546037
 1.71324629 1.71324846 2.2095062  2.20950681 2.41529374 2.41529465
 2.44841782 2.4484183  2.72940609 2.72940614 2.75704122 2.75704206
 3.51049301 3.51049397 8.64337829 8.64358176]
  28 ( 0.250  0.750  0.000)   [-0.08243197  0.23319126  0.26945645  0.45316912] [0.83621407 0.92895296 1.02021942 1.07029899 1.29664712 1.38180566
 1.49837135 1.87700908 1.96970018 2.15143363 2.15574548 2.23490297
 2.5023561  2.75813045 2.8340473  2.9973341  3.13849247 3.2023068
 3.48475936 4.06770366 9.0998308  9.24463049]
  29 ( 0.250  0.750  0.250)   [-0.02286304  0.15177201  0.30534144  0.37961251] [0.76187043 0.9710526  1.03722832 1.05575623 1.32685977 1.45670174
 1.60052508 1.83688786 1.89885446 2.15487322 2.34654673 2.42692056
 2.54848253 2.57741236 2.68364248 2.7958284  2.99984012 3.31519914
 3.41837307 3.68854465 7.71180693 9.41090509]
  30 ( 0.250  0.750  0.500)   [0.11106884 0.11106905 0.24016321 0.24016333] [0.93827491 0.938276   1.01453882 1.01454002 1.36545833 1.36546037
 1.71324629 1.71324846 2.2095062  2.20950681 2.41529374 2.41529465
 2.44841782 2.4484183  2.72940609 2.72940614 2.75704122 2.75704206
 3.51049301 3.51049397 8.64337829 8.64358176]
  31 ( 0.250  0.750  0.750)   [-0.02286304  0.15177201  0.30534144  0.37961251] [0.76187043 0.9710526  1.03722832 1.05575623 1.32685977 1.45670174
 1.60052508 1.83688786 1.89885446 2.15487322 2.34654673 2.42692056
 2.54848253 2.57741236 2.68364248 2.7958284  2.99984012 3.31519914
 3.41837307 3.68854465 7.71180693 9.41090509]
  32 ( 0.500 -0.000 -0.000)   [-0.02955724  0.04939761  0.4621782   0.4621782 ] [0.86181626 0.86181626 0.87637692 1.21755385 1.38923472 1.55354225
 1.55354225 1.82014486 1.82014486 2.18603859 2.26453481 2.64419075
 2.7472774  2.7472774  2.76273354 2.76273354 3.34069831 3.34069831
 3.4051255  3.4051255  4.89726707 9.61041295]
  33 ( 0.500 -0.000  0.250)   [-0.02286304  0.15177201  0.30534144  0.37961251] [0.76187043 0.9710526  1.03722832 1.05575623 1.32685977 1.45670174
 1.60052508 1.83688786 1.89885446 2.15487322 2.34654673 2.42692056
 2.54848253 2.57741236 2.68364248 2.7958284  2.99984012 3.31519914
 3.41837307 3.68854465 7.71180693 9.41090509]
  34 ( 0.500  0.000  0.500)   [0.07891488 0.07891511 0.3246933  0.3246933 ] [0.70846063 0.70846078 1.20080594 1.20080594 1.44587553 1.44587883
 1.78322506 1.78322506 2.00216987 2.00216987 2.47905089 2.47905089
 2.55478229 2.55478241 2.61830289 2.61830289 3.31419485 3.31419541
 4.68640737 4.68640737 6.7257115  6.72585248]
  35 ( 0.500  0.000  0.750)   [-0.02286304  0.15177201  0.30534144  0.37961251] [0.76187043 0.9710526  1.03722832 1.05575623 1.32685977 1.45670174
 1.60052508 1.83688786 1.89885446 2.15487322 2.34654673 2.42692056
 2.54848253 2.57741236 2.68364248 2.7958284  2.99984012 3.31519914
 3.41837307 3.68854465 7.71180693 9.41090509]
  36 ( 0.500  0.250 -0.000)   [-0.02286304  0.15177201  0.30534144  0.37961251] [0.76187043 0.9710526  1.03722832 1.05575623 1.32685977 1.45670174
 1.60052508 1.83688786 1.89885446 2.15487322 2.34654673 2.42692056
 2.54848253 2.57741236 2.68364248 2.7958284  2.99984012 3.31519914
 3.41837307 3.68854465 7.71180693 9.41090509]
  37 ( 0.500  0.250  0.250)   [-0.08243197  0.23319126  0.26945645  0.45316912] [0.83621407 0.92895296 1.02021942 1.07029899 1.29664712 1.38180566
 1.49837135 1.87700908 1.96970018 2.15143363 2.15574548 2.23490297
 2.5023561  2.75813045 2.8340473  2.9973341  3.13849247 3.2023068
 3.48475936 4.06770366 9.0998308  9.24463049]
  38 ( 0.500  0.250  0.500)   [-0.02286304  0.15177201  0.30534144  0.37961251] [0.76187043 0.9710526  1.03722832 1.05575623 1.32685977 1.45670174
 1.60052508 1.83688786 1.89885446 2.15487322 2.34654673 2.42692056
 2.54848253 2.57741236 2.68364248 2.7958284  2.99984012 3.31519914
 3.41837307 3.68854465 7.71180693 9.41090509]
  39 ( 0.500  0.250  0.750)   [0.11106884 0.11106905 0.24016321 0.24016333] [0.93827491 0.938276   1.01453882 1.01454002 1.36545833 1.36546037
 1.71324629 1.71324846 2.2095062  2.20950681 2.41529374 2.41529465
 2.44841782 2.4484183  2.72940609 2.72940614 2.75704122 2.75704206
 3.51049301 3.51049397 8.64337829 8.64358176]
  40 ( 0.500  0.500  0.000)   [0.07891488 0.07891511 0.3246933  0.3246933 ] [0.70846063 0.70846078 1.20080594 1.20080594 1.44587553 1.44587883
 1.78322506 1.78322506 2.00216987 2.00216987 2.47905089 2.47905089
 2.55478229 2.55478241 2.61830289 2.61830289 3.31419485 3.31419541
 4.68640737 4.68640737 6.7257115  6.72585248]
  41 ( 0.500  0.500  0.250)   [-0.02286304  0.15177201  0.30534144  0.37961251] [0.76187043 0.9710526  1.03722832 1.05575623 1.32685977 1.45670174
 1.60052508 1.83688786 1.89885446 2.15487322 2.34654673 2.42692056
 2.54848253 2.57741236 2.68364248 2.7958284  2.99984012 3.31519914
 3.41837307 3.68854465 7.71180693 9.41090509]
  42 ( 0.500  0.500  0.500)   [-0.02955724  0.04939761  0.4621782   0.4621782 ] [0.86181626 0.86181626 0.87637692 1.21755385 1.38923472 1.55354225
 1.55354225 1.82014486 1.82014486 2.18603859 2.26453481 2.64419075
 2.7472774  2.7472774  2.76273354 2.76273354 3.34069831 3.34069831
 3.4051255  3.4051255  4.89726707 9.61041295]
  43 ( 0.500  0.500  0.750)   [-0.02286304  0.15177201  0.30534144  0.37961251] [0.76187043 0.9710526  1.03722832 1.05575623 1.32685977 1.45670174
 1.60052508 1.83688786 1.89885446 2.15487322 2.34654673 2.42692056
 2.54848253 2.57741236 2.68364248 2.7958284  2.99984012 3.31519914
 3.41837307 3.68854465 7.71180693 9.41090509]
  44 ( 0.500  0.750  0.000)   [-0.02286304  0.15177201  0.30534144  0.37961251] [0.76187043 0.9710526  1.03722832 1.05575623 1.32685977 1.45670174
 1.60052508 1.83688786 1.89885446 2.15487322 2.34654673 2.42692056
 2.54848253 2.57741236 2.68364248 2.7958284  2.99984012 3.31519914
 3.41837307 3.68854465 7.71180693 9.41090509]
  45 ( 0.500  0.750  0.250)   [0.11106884 0.11106905 0.24016321 0.24016333] [0.93827491 0.938276   1.01453882 1.01454002 1.36545833 1.36546037
 1.71324629 1.71324846 2.2095062  2.20950681 2.41529374 2.41529465
 2.44841782 2.4484183  2.72940609 2.72940614 2.75704122 2.75704206
 3.51049301 3.51049397 8.64337829 8.64358176]
  46 ( 0.500  0.750  0.500)   [-0.02286304  0.15177201  0.30534144  0.37961251] [0.76187043 0.9710526  1.03722832 1.05575623 1.32685977 1.45670174
 1.60052508 1.83688786 1.89885446 2.15487322 2.34654673 2.42692056
 2.54848253 2.57741236 2.68364248 2.7958284  2.99984012 3.31519914
 3.41837307 3.68854465 7.71180693 9.41090509]
  47 ( 0.500  0.750  0.750)   [-0.08243197  0.23319126  0.26945645  0.45316912] [0.83621407 0.92895296 1.02021942 1.07029899 1.29664712 1.38180566
 1.49837135 1.87700908 1.96970018 2.15143363 2.15574548 2.23490297
 2.5023561  2.75813045 2.8340473  2.9973341  3.13849247 3.2023068
 3.48475936 4.06770366 9.0998308  9.24463049]
  48 ( 0.750 -0.000 -0.000)   [-0.18615722  0.31138763  0.5023202   0.5023202 ] [0.8439411  0.8439411  0.85489652 1.11790745 1.36119035 1.45225442
 1.45225442 1.97991064 2.16493791 2.16493791 2.22176721 2.22176721
 2.26606738 3.11655287 3.11655287 3.18947856 3.38261659 3.38261659
 3.9043724  3.9043724  5.11612926 9.17481233]
  49 ( 0.750  0.000  0.250)   [-0.08243197  0.23319126  0.26945645  0.45316912] [0.83621407 0.92895296 1.02021942 1.07029899 1.29664712 1.38180566
 1.49837135 1.87700908 1.96970018 2.15143363 2.15574548 2.23490297
 2.5023561  2.75813045 2.8340473  2.9973341  3.13849247 3.2023068
 3.48475936 4.06770366 9.0998308  9.24463049]
  50 ( 0.750  0.000  0.500)   [-0.02286304  0.15177201  0.30534144  0.37961251] [0.76187043 0.9710526  1.03722832 1.05575623 1.32685977 1.45670174
 1.60052508 1.83688786 1.89885446 2.15487322 2.34654673 2.42692056
 2.54848253 2.57741236 2.68364248 2.7958284  2.99984012 3.31519914
 3.41837307 3.68854465 7.71180693 9.41090509]
  51 ( 0.750  0.000  0.750)   [-0.16440189  0.39617328  0.407869    0.407869  ] [0.70659561 0.9179402  0.99646862 0.99646862 1.3508037  1.40436685
 1.64051465 1.99480109 1.99480109 2.13105077 2.13105077 2.17441752
 2.5405693  2.65707002 2.83875291 3.1541132  3.1541132  3.60801427
 4.30339421 4.30339421 6.63057843 7.75252007]
  52 ( 0.750  0.250  0.000)   [-0.08243197  0.23319126  0.26945645  0.45316912] [0.83621407 0.92895296 1.02021942 1.07029899 1.29664712 1.38180566
 1.49837135 1.87700908 1.96970018 2.15143363 2.15574548 2.23490297
 2.5023561  2.75813045 2.8340473  2.9973341  3.13849247 3.2023068
 3.48475936 4.06770366 9.0998308  9.24463049]
  53 ( 0.750  0.250  0.250)   [-0.02286304  0.15177201  0.30534144  0.37961251] [0.76187043 0.9710526  1.03722832 1.05575623 1.32685977 1.45670174
 1.60052508 1.83688786 1.89885446 2.15487322 2.34654673 2.42692056
 2.54848253 2.57741236 2.68364248 2.7958284  2.99984012 3.31519914
 3.41837307 3.68854465 7.71180693 9.41090509]
  54 ( 0.750  0.250  0.500)   [0.11106884 0.11106905 0.24016321 0.24016333] [0.93827491 0.938276   1.01453882 1.01454002 1.36545833 1.36546037
 1.71324629 1.71324846 2.2095062  2.20950681 2.41529374 2.41529465
 2.44841782 2.4484183  2.72940609 2.72940614 2.75704122 2.75704206
 3.51049301 3.51049397 8.64337829 8.64358176]
  55 ( 0.750  0.250  0.750)   [-0.02286304  0.15177201  0.30534144  0.37961251] [0.76187043 0.9710526  1.03722832 1.05575623 1.32685977 1.45670174
 1.60052508 1.83688786 1.89885446 2.15487322 2.34654673 2.42692056
 2.54848253 2.57741236 2.68364248 2.7958284  2.99984012 3.31519914
 3.41837307 3.68854465 7.71180693 9.41090509]
  56 ( 0.750  0.500  0.000)   [-0.02286304  0.15177201  0.30534144  0.37961251] [0.76187043 0.9710526  1.03722832 1.05575623 1.32685977 1.45670174
 1.60052508 1.83688786 1.89885446 2.15487322 2.34654673 2.42692056
 2.54848253 2.57741236 2.68364248 2.7958284  2.99984012 3.31519914
 3.41837307 3.68854465 7.71180693 9.41090509]
  57 ( 0.750  0.500  0.250)   [0.11106884 0.11106905 0.24016321 0.24016333] [0.93827491 0.938276   1.01453882 1.01454002 1.36545833 1.36546037
 1.71324629 1.71324846 2.2095062  2.20950681 2.41529374 2.41529465
 2.44841782 2.4484183  2.72940609 2.72940614 2.75704122 2.75704206
 3.51049301 3.51049397 8.64337829 8.64358176]
  58 ( 0.750  0.500  0.500)   [-0.02286304  0.15177201  0.30534144  0.37961251] [0.76187043 0.9710526  1.03722832 1.05575623 1.32685977 1.45670174
 1.60052508 1.83688786 1.89885446 2.15487322 2.34654673 2.42692056
 2.54848253 2.57741236 2.68364248 2.7958284  2.99984012 3.31519914
 3.41837307 3.68854465 7.71180693 9.41090509]
  59 ( 0.750  0.500  0.750)   [-0.08243197  0.23319126  0.26945645  0.45316912] [0.83621407 0.92895296 1.02021942 1.07029899 1.29664712 1.38180566
 1.49837135 1.87700908 1.96970018 2.15143363 2.15574548 2.23490297
 2.5023561  2.75813045 2.8340473  2.9973341  3.13849247 3.2023068
 3.48475936 4.06770366 9.0998308  9.24463049]
  60 ( 0.750  0.750  0.000)   [-0.16440189  0.39617328  0.407869    0.407869  ] [0.70659561 0.9179402  0.99646862 0.99646862 1.3508037  1.40436685
 1.64051465 1.99480109 1.99480109 2.13105077 2.13105077 2.17441752
 2.5405693  2.65707002 2.83875291 3.1541132  3.1541132  3.60801427
 4.30339421 4.30339421 6.63057843 7.75252007]
  61 ( 0.750  0.750  0.250)   [-0.02286304  0.15177201  0.30534144  0.37961251] [0.76187043 0.9710526  1.03722832 1.05575623 1.32685977 1.45670174
 1.60052508 1.83688786 1.89885446 2.15487322 2.34654673 2.42692056
 2.54848253 2.57741236 2.68364248 2.7958284  2.99984012 3.31519914
 3.41837307 3.68854465 7.71180693 9.41090509]
  62 ( 0.750  0.750  0.500)   [-0.08243197  0.23319126  0.26945645  0.45316912] [0.83621407 0.92895296 1.02021942 1.07029899 1.29664712 1.38180566
 1.49837135 1.87700908 1.96970018 2.15143363 2.15574548 2.23490297
 2.5023561  2.75813045 2.8340473  2.9973341  3.13849247 3.2023068
 3.48475936 4.06770366 9.0998308  9.24463049]
  63 ( 0.750  0.750  0.750)   [-0.18615722  0.31138763  0.5023202   0.5023202 ] [0.8439411  0.8439411  0.85489652 1.11790745 1.36119035 1.45225442
 1.45225442 1.97991064 2.16493791 2.16493791 2.22176721 2.22176721
 2.26606738 3.11655287 3.11655287 3.18947856 3.38261659 3.38261659
 3.9043724  3.9043724  5.11612926 9.17481233]
nelec by numeric integration = 8.000000000000066
    CPU time for vxc      8.79 sec, wall time      2.05 sec
    CPU time for vj and vk      4.28 sec, wall time      0.81 sec
Ewald components = 8.67997097708575e-26, -47.3756282134421, 34.5884981493536
E1 = (4.083390401545934+5.811493051111755e-18j)  Ecoul = 0.8699660988787966  Exc = -3.5231227863516716
cycle= 1 E= -11.3568963500154  delta_E= -1.21  |g|=  1.5  |ddm|=  101
    CPU time for cycle= 1     13.10 sec, wall time      2.89 sec
diis-norm(errvec)=2.20434
diis-c [-4.85912714-1.05075167e-17j  1.        +0.00000000e+00j]
HOMO = 0.479757098148  LUMO = 0.648676295744
     k-point                  mo_energy
   0 ( 0.000  0.000  0.000)   [-0.30605258  0.4797571   0.4797571   0.4797571 ] [0.68950684 0.68950684 0.68950684 0.96016751 1.48391262 1.48391262
 1.7480311  1.7480311  1.7480311  1.77337861 2.25154566 2.25154566
 2.25154566 3.1585513  3.1585513  3.1585513  3.24763449 3.24763449
 4.29873055 4.29873055 4.29873055 4.83985272]
   1 ( 0.000  0.000  0.250)   [-0.24463343  0.23924283  0.41601989  0.41601989] [0.77029759 0.77029759 0.78061977 1.02378479 1.29476374 1.40991667
 1.40991667 1.91710189 2.08936927 2.08936927 2.16397133 2.16397133
 2.20549261 3.04948896 3.04948896 3.12228631 3.32699124 3.32699124
 3.83787779 3.83787779 4.99369176 8.9162235 ]
   2 ( 0.000  0.000  0.500)   [-0.09716314 -0.00765278  0.37735449  0.37735449] [0.79654698 0.79654698 0.80405678 1.11727635 1.3057406  1.48673362
 1.48673362 1.77705025 1.77705025 2.13162032 2.22043125 2.57467541
 2.65637882 2.65637882 2.70985287 2.70985287 3.28474424 3.28474424
 3.35087503 3.35087503 4.77414356 9.33223603]
   3 ( 0.000  0.000  0.750)   [-0.24463343  0.23924283  0.41601989  0.41601989] [0.77029759 0.77029759 0.78061977 1.02378479 1.29476374 1.40991667
 1.40991667 1.91710189 2.08936927 2.08936927 2.16397133 2.16397133
 2.20549261 3.04948896 3.04948896 3.12228631 3.32699124 3.32699124
 3.83787779 3.83787779 4.99369176 8.9162235 ]
   4 (-0.000  0.250  0.000)   [-0.24463343  0.23924283  0.41601989  0.41601989] [0.77029759 0.77029759 0.78061977 1.02378479 1.29476374 1.40991667
 1.40991667 1.91710189 2.08936927 2.08936927 2.16397133 2.16397133
 2.20549261 3.04948896 3.04948896 3.12228631 3.32699124 3.32699124
 3.83787779 3.83787779 4.99369176 8.9162235 ]
   5 ( 0.000  0.250  0.250)   [-0.22369328  0.31336672  0.3302947   0.3302947 ] [0.6486763  0.86755808 0.90825736 0.90825736 1.27207397 1.32894826
 1.60108208 1.91882911 1.91882911 2.0767894  2.0767894  2.13829706
 2.47032779 2.61177856 2.7651121  3.08560703 3.08560703 3.55129666
 4.2278854  4.2278854  6.46548631 7.55282142]
   6 ( 0.000  0.250  0.500)   [-0.08752276  0.08519503  0.2340833   0.30249212] [0.71018221 0.90633982 0.95375713 0.97052794 1.2416756  1.36162269
 1.54219396 1.77950449 1.8527407  2.10486103 2.29161838 2.36418017
 2.49140117 2.51110695 2.62347692 2.71654623 2.94009574 3.26254312
 3.364771   3.62430257 7.51296323 9.13895556]
   7 ( 0.000  0.250  0.750)   [-0.14423065  0.16065537  0.20348784  0.37036191] [0.77702934 0.85120571 0.93643766 0.99121643 1.22231622 1.34015034
 1.40877333 1.82847725 1.92970307 2.07824159 2.08983199 2.17410673
 2.44348589 2.68557809 2.75238762 2.92136984 3.09264656 3.15054752
 3.4295799  4.01896297 8.84848204 8.9817388 ]
   8 (-0.000  0.500  0.000)   [-0.09716314 -0.00765278  0.37735449  0.37735449] [0.79654698 0.79654698 0.80405678 1.11727635 1.3057406  1.48673362
 1.48673362 1.77705025 1.77705025 2.13162032 2.22043125 2.57467541
 2.65637882 2.65637882 2.70985287 2.70985287 3.28474424 3.28474424
 3.35087503 3.35087503 4.77414356 9.33223603]
   9 (-0.000  0.500  0.250)   [-0.08752276  0.08519503  0.2340833   0.30249212] [0.71018221 0.90633982 0.95375713 0.97052794 1.2416756  1.36162269
 1.54219396 1.77950449 1.8527407  2.10486103 2.29161838 2.36418017
 2.49140117 2.51110695 2.62347692 2.71654623 2.94009574 3.26254312
 3.364771   3.62430257 7.51296323 9.13895556]
  10 ( 0.000  0.500  0.500)   [0.01113567 0.01113649 0.25099406 0.25099406] [0.66246801 0.66246838 1.0976076  1.0976076  1.34831224 1.3483123
 1.72729139 1.72729139 1.96067069 1.9606716  2.4024282  2.4024282
 2.5067714  2.50677236 2.56480615 2.56480615 3.25201016 3.25201253
 4.62433163 4.62433163 6.56248707 6.56387856]
  11 ( 0.000  0.500  0.750)   [-0.08752276  0.08519503  0.2340833   0.30249212] [0.71018221 0.90633982 0.95375713 0.97052794 1.2416756  1.36162269
 1.54219396 1.77950449 1.8527407  2.10486103 2.29161838 2.36418017
 2.49140117 2.51110695 2.62347692 2.71654623 2.94009574 3.26254312
 3.364771   3.62430257 7.51296323 9.13895556]
  12 (-0.000  0.750  0.000)   [-0.24463343  0.23924283  0.41601989  0.41601989] [0.77029759 0.77029759 0.78061977 1.02378479 1.29476374 1.40991667
 1.40991667 1.91710189 2.08936927 2.08936927 2.16397133 2.16397133
 2.20549261 3.04948896 3.04948896 3.12228631 3.32699124 3.32699124
 3.83787779 3.83787779 4.99369176 8.9162235 ]
  13 ( 0.000  0.750  0.250)   [-0.14423065  0.16065537  0.20348784  0.37036191] [0.77702934 0.85120571 0.93643766 0.99121643 1.22231622 1.34015034
 1.40877333 1.82847725 1.92970307 2.07824159 2.08983199 2.17410673
 2.44348589 2.68557809 2.75238762 2.92136984 3.09264656 3.15054752
 3.4295799  4.01896297 8.84848204 8.9817388 ]
  14 ( 0.000  0.750  0.500)   [-0.08752276  0.08519503  0.2340833   0.30249212] [0.71018221 0.90633982 0.95375713 0.97052794 1.2416756  1.36162269
 1.54219396 1.77950449 1.8527407  2.10486103 2.29161838 2.36418017
 2.49140117 2.51110695 2.62347692 2.71654623 2.94009574 3.26254312
 3.364771   3.62430257 7.51296323 9.13895556]
  15 ( 0.000  0.750  0.750)   [-0.22369328  0.31336672  0.3302947   0.3302947 ] [0.6486763  0.86755808 0.90825736 0.90825736 1.27207397 1.32894826
 1.60108208 1.91882911 1.91882911 2.0767894  2.0767894  2.13829706
 2.47032779 2.61177856 2.7651121  3.08560703 3.08560703 3.55129666
 4.2278854  4.2278854  6.46548631 7.55282142]
  16 ( 0.250 -0.000 -0.000)   [-0.24463343  0.23924283  0.41601989  0.41601989] [0.77029759 0.77029759 0.78061977 1.02378479 1.29476374 1.40991667
 1.40991667 1.91710189 2.08936927 2.08936927 2.16397133 2.16397133
 2.20549261 3.04948896 3.04948896 3.12228631 3.32699124 3.32699124
 3.83787779 3.83787779 4.99369176 8.9162235 ]
  17 ( 0.250  0.000  0.250)   [-0.22369328  0.31336672  0.3302947   0.3302947 ] [0.6486763  0.86755808 0.90825736 0.90825736 1.27207397 1.32894826
 1.60108208 1.91882911 1.91882911 2.0767894  2.0767894  2.13829706
 2.47032779 2.61177856 2.7651121  3.08560703 3.08560703 3.55129666
 4.2278854  4.2278854  6.46548631 7.55282142]
  18 ( 0.250  0.000  0.500)   [-0.08752276  0.08519503  0.2340833   0.30249212] [0.71018221 0.90633982 0.95375713 0.97052794 1.2416756  1.36162269
 1.54219396 1.77950449 1.8527407  2.10486103 2.29161838 2.36418017
 2.49140117 2.51110695 2.62347692 2.71654623 2.94009574 3.26254312
 3.364771   3.62430257 7.51296323 9.13895556]
  19 ( 0.250  0.000  0.750)   [-0.14423065  0.16065537  0.20348784  0.37036191] [0.77702934 0.85120571 0.93643766 0.99121643 1.22231622 1.34015034
 1.40877333 1.82847725 1.92970307 2.07824159 2.08983199 2.17410673
 2.44348589 2.68557809 2.75238762 2.92136984 3.09264656 3.15054752
 3.4295799  4.01896297 8.84848204 8.9817388 ]
  20 ( 0.250  0.250  0.000)   [-0.22369328  0.31336672  0.3302947   0.3302947 ] [0.6486763  0.86755808 0.90825736 0.90825736 1.27207397 1.32894826
 1.60108208 1.91882911 1.91882911 2.0767894  2.0767894  2.13829706
 2.47032779 2.61177856 2.7651121  3.08560703 3.08560703 3.55129666
 4.2278854  4.2278854  6.46548631 7.55282142]
  21 ( 0.250  0.250  0.250)   [-0.24463343  0.23924283  0.41601989  0.41601989] [0.77029759 0.77029759 0.78061977 1.02378479 1.29476374 1.40991667
 1.40991667 1.91710189 2.08936927 2.08936927 2.16397133 2.16397133
 2.20549261 3.04948896 3.04948896 3.12228631 3.32699124 3.32699124
 3.83787779 3.83787779 4.99369176 8.9162235 ]
  22 ( 0.250  0.250  0.500)   [-0.14423065  0.16065537  0.20348784  0.37036191] [0.77702934 0.85120571 0.93643766 0.99121643 1.22231622 1.34015034
 1.40877333 1.82847725 1.92970307 2.07824159 2.08983199 2.17410673
 2.44348589 2.68557809 2.75238762 2.92136984 3.09264656 3.15054752
 3.4295799  4.01896297 8.84848204 8.9817388 ]
  23 ( 0.250  0.250  0.750)   [-0.08752276  0.08519503  0.2340833   0.30249212] [0.71018221 0.90633982 0.95375713 0.97052794 1.2416756  1.36162269
 1.54219396 1.77950449 1.8527407  2.10486103 2.29161838 2.36418017
 2.49140117 2.51110695 2.62347692 2.71654623 2.94009574 3.26254312
 3.364771   3.62430257 7.51296323 9.13895556]
  24 ( 0.250  0.500  0.000)   [-0.08752276  0.08519503  0.2340833   0.30249212] [0.71018221 0.90633982 0.95375713 0.97052794 1.2416756  1.36162269
 1.54219396 1.77950449 1.8527407  2.10486103 2.29161838 2.36418017
 2.49140117 2.51110695 2.62347692 2.71654623 2.94009574 3.26254312
 3.364771   3.62430257 7.51296323 9.13895556]
  25 ( 0.250  0.500  0.250)   [-0.14423065  0.16065537  0.20348784  0.37036191] [0.77702934 0.85120571 0.93643766 0.99121643 1.22231622 1.34015034
 1.40877333 1.82847725 1.92970307 2.07824159 2.08983199 2.17410673
 2.44348589 2.68557809 2.75238762 2.92136984 3.09264656 3.15054752
 3.4295799  4.01896297 8.84848204 8.9817388 ]
  26 ( 0.250  0.500  0.500)   [-0.08752276  0.08519503  0.2340833   0.30249212] [0.71018221 0.90633982 0.95375713 0.97052794 1.2416756  1.36162269
 1.54219396 1.77950449 1.8527407  2.10486103 2.29161838 2.36418017
 2.49140117 2.51110695 2.62347692 2.71654623 2.94009574 3.26254312
 3.364771   3.62430257 7.51296323 9.13895556]
  27 ( 0.250  0.500  0.750)   [0.03910966 0.03911068 0.1781446  0.17814477] [0.87827892 0.87827923 0.9328699  0.93287016 1.27299862 1.27299882
 1.64859643 1.64859693 2.15836276 2.15836323 2.36060776 2.36060819
 2.39621034 2.39621149 2.67505228 2.67505243 2.67636417 2.6763645
 3.4560308  3.4560312  8.40956663 8.41160676]
  28 ( 0.250  0.750  0.000)   [-0.14423065  0.16065537  0.20348784  0.37036191] [0.77702934 0.85120571 0.93643766 0.99121643 1.22231622 1.34015034
 1.40877333 1.82847725 1.92970307 2.07824159 2.08983199 2.17410673
 2.44348589 2.68557809 2.75238762 2.92136984 3.09264656 3.15054752
 3.4295799  4.01896297 8.84848204 8.9817388 ]
  29 ( 0.250  0.750  0.250)   [-0.08752276  0.08519503  0.2340833   0.30249212] [0.71018221 0.90633982 0.95375713 0.97052794 1.2416756  1.36162269
 1.54219396 1.77950449 1.8527407  2.10486103 2.29161838 2.36418017
 2.49140117 2.51110695 2.62347692 2.71654623 2.94009574 3.26254312
 3.364771   3.62430257 7.51296323 9.13895556]
  30 ( 0.250  0.750  0.500)   [0.03910966 0.03911068 0.1781446  0.17814477] [0.87827892 0.87827923 0.9328699  0.93287016 1.27299862 1.27299882
 1.64859643 1.64859693 2.15836276 2.15836323 2.36060776 2.36060819
 2.39621034 2.39621149 2.67505228 2.67505243 2.67636417 2.6763645
 3.4560308  3.4560312  8.40956663 8.41160676]
  31 ( 0.250  0.750  0.750)   [-0.08752276  0.08519503  0.2340833   0.30249212] [0.71018221 0.90633982 0.95375713 0.97052794 1.2416756  1.36162269
 1.54219396 1.77950449 1.8527407  2.10486103 2.29161838 2.36418017
 2.49140117 2.51110695 2.62347692 2.71654623 2.94009574 3.26254312
 3.364771   3.62430257 7.51296323 9.13895556]
  32 ( 0.500 -0.000 -0.000)   [-0.09716314 -0.00765278  0.37735449  0.37735449] [0.79654698 0.79654698 0.80405678 1.11727635 1.3057406  1.48673362
 1.48673362 1.77705025 1.77705025 2.13162032 2.22043125 2.57467541
 2.65637882 2.65637882 2.70985287 2.70985287 3.28474424 3.28474424
 3.35087503 3.35087503 4.77414356 9.33223603]
  33 ( 0.500 -0.000  0.250)   [-0.08752276  0.08519503  0.2340833   0.30249212] [0.71018221 0.90633982 0.95375713 0.97052794 1.2416756  1.36162269
 1.54219396 1.77950449 1.8527407  2.10486103 2.29161838 2.36418017
 2.49140117 2.51110695 2.62347692 2.71654623 2.94009574 3.26254312
 3.364771   3.62430257 7.51296323 9.13895556]
  34 ( 0.500  0.000  0.500)   [0.01113567 0.01113649 0.25099406 0.25099406] [0.66246801 0.66246838 1.0976076  1.0976076  1.34831224 1.3483123
 1.72729139 1.72729139 1.96067069 1.9606716  2.4024282  2.4024282
 2.5067714  2.50677236 2.56480615 2.56480615 3.25201016 3.25201253
 4.62433163 4.62433163 6.56248707 6.56387856]
  35 ( 0.500  0.000  0.750)   [-0.08752276  0.08519503  0.2340833   0.30249212] [0.71018221 0.90633982 0.95375713 0.97052794 1.2416756  1.36162269
 1.54219396 1.77950449 1.8527407  2.10486103 2.29161838 2.36418017
 2.49140117 2.51110695 2.62347692 2.71654623 2.94009574 3.26254312
 3.364771   3.62430257 7.51296323 9.13895556]
  36 ( 0.500  0.250 -0.000)   [-0.08752276  0.08519503  0.2340833   0.30249212] [0.71018221 0.90633982 0.95375713 0.97052794 1.2416756  1.36162269
 1.54219396 1.77950449 1.8527407  2.10486103 2.29161838 2.36418017
 2.49140117 2.51110695 2.62347692 2.71654623 2.94009574 3.26254312
 3.364771   3.62430257 7.51296323 9.13895556]
  37 ( 0.500  0.250  0.250)   [-0.14423065  0.16065537  0.20348784  0.37036191] [0.77702934 0.85120571 0.93643766 0.99121643 1.22231622 1.34015034
 1.40877333 1.82847725 1.92970307 2.07824159 2.08983199 2.17410673
 2.44348589 2.68557809 2.75238762 2.92136984 3.09264656 3.15054752
 3.4295799  4.01896297 8.84848204 8.9817388 ]
  38 ( 0.500  0.250  0.500)   [-0.08752276  0.08519503  0.2340833   0.30249212] [0.71018221 0.90633982 0.95375713 0.97052794 1.2416756  1.36162269
 1.54219396 1.77950449 1.8527407  2.10486103 2.29161838 2.36418017
 2.49140117 2.51110695 2.62347692 2.71654623 2.94009574 3.26254312
 3.364771   3.62430257 7.51296323 9.13895556]
  39 ( 0.500  0.250  0.750)   [0.03910966 0.03911068 0.1781446  0.17814477] [0.87827892 0.87827923 0.9328699  0.93287016 1.27299862 1.27299882
 1.64859643 1.64859693 2.15836276 2.15836323 2.36060776 2.36060819
 2.39621034 2.39621149 2.67505228 2.67505243 2.67636417 2.6763645
 3.4560308  3.4560312  8.40956663 8.41160676]
  40 ( 0.500  0.500  0.000)   [0.01113567 0.01113649 0.25099406 0.25099406] [0.66246801 0.66246838 1.0976076  1.0976076  1.34831224 1.3483123
 1.72729139 1.72729139 1.96067069 1.9606716  2.4024282  2.4024282
 2.5067714  2.50677236 2.56480615 2.56480615 3.25201016 3.25201253
 4.62433163 4.62433164 6.56248707 6.56387856]
  41 ( 0.500  0.500  0.250)   [-0.08752276  0.08519503  0.2340833   0.30249212] [0.71018221 0.90633982 0.95375713 0.97052794 1.2416756  1.36162269
 1.54219396 1.77950449 1.8527407  2.10486103 2.29161838 2.36418017
 2.49140117 2.51110695 2.62347692 2.71654623 2.94009574 3.26254312
 3.364771   3.62430257 7.51296323 9.13895556]
  42 ( 0.500  0.500  0.500)   [-0.09716314 -0.00765278  0.37735449  0.37735449] [0.79654698 0.79654698 0.80405678 1.11727635 1.3057406  1.48673362
 1.48673362 1.77705025 1.77705025 2.13162032 2.22043125 2.57467541
 2.65637882 2.65637882 2.70985287 2.70985287 3.28474424 3.28474424
 3.35087503 3.35087503 4.77414356 9.33223603]
  43 ( 0.500  0.500  0.750)   [-0.08752276  0.08519503  0.2340833   0.30249212] [0.71018221 0.90633982 0.95375713 0.97052794 1.2416756  1.36162269
 1.54219396 1.77950449 1.8527407  2.10486103 2.29161838 2.36418017
 2.49140117 2.51110695 2.62347692 2.71654623 2.94009574 3.26254312
 3.364771   3.62430257 7.51296323 9.13895556]
  44 ( 0.500  0.750  0.000)   [-0.08752276  0.08519503  0.2340833   0.30249212] [0.71018221 0.90633982 0.95375713 0.97052794 1.2416756  1.36162269
 1.54219396 1.77950449 1.8527407  2.10486103 2.29161838 2.36418017
 2.49140117 2.51110695 2.62347692 2.71654623 2.94009574 3.26254312
 3.364771   3.62430257 7.51296323 9.13895556]
  45 ( 0.500  0.750  0.250)   [0.03910966 0.03911068 0.1781446  0.17814477] [0.87827892 0.87827923 0.9328699  0.93287016 1.27299862 1.27299882
 1.64859643 1.64859693 2.15836276 2.15836323 2.36060776 2.36060819
 2.39621034 2.39621149 2.67505228 2.67505243 2.67636417 2.6763645
 3.4560308  3.4560312  8.40956663 8.41160676]
  46 ( 0.500  0.750  0.500)   [-0.08752276  0.08519503  0.2340833   0.30249212] [0.71018221 0.90633982 0.95375713 0.97052794 1.2416756  1.36162269
 1.54219396 1.77950449 1.8527407  2.10486103 2.29161838 2.36418017
 2.49140117 2.51110695 2.62347692 2.71654623 2.94009574 3.26254312
 3.364771   3.62430257 7.51296323 9.13895556]
  47 ( 0.500  0.750  0.750)   [-0.14423065  0.16065537  0.20348784  0.37036191] [0.77702934 0.85120571 0.93643766 0.99121643 1.22231622 1.34015034
 1.40877333 1.82847725 1.92970307 2.07824159 2.08983199 2.17410673
 2.44348589 2.68557809 2.75238762 2.92136984 3.09264656 3.15054752
 3.4295799  4.01896297 8.84848204 8.9817388 ]
  48 ( 0.750 -0.000 -0.000)   [-0.24463343  0.23924283  0.41601989  0.41601989] [0.77029759 0.77029759 0.78061977 1.02378479 1.29476374 1.40991667
 1.40991667 1.91710189 2.08936927 2.08936927 2.16397133 2.16397133
 2.20549261 3.04948896 3.04948896 3.12228631 3.32699124 3.32699124
 3.83787779 3.83787779 4.99369176 8.9162235 ]
  49 ( 0.750  0.000  0.250)   [-0.14423065  0.16065537  0.20348784  0.37036191] [0.77702934 0.85120571 0.93643766 0.99121643 1.22231622 1.34015034
 1.40877333 1.82847725 1.92970307 2.07824159 2.08983199 2.17410673
 2.44348589 2.68557809 2.75238762 2.92136984 3.09264656 3.15054752
 3.4295799  4.01896297 8.84848204 8.9817388 ]
  50 ( 0.750  0.000  0.500)   [-0.08752276  0.08519503  0.2340833   0.30249212] [0.71018221 0.90633982 0.95375713 0.97052794 1.2416756  1.36162269
 1.54219396 1.77950449 1.8527407  2.10486103 2.29161838 2.36418017
 2.49140117 2.51110695 2.62347692 2.71654623 2.94009574 3.26254312
 3.364771   3.62430257 7.51296323 9.13895556]
  51 ( 0.750  0.000  0.750)   [-0.22369328  0.31336672  0.3302947   0.3302947 ] [0.6486763  0.86755808 0.90825736 0.90825736 1.27207397 1.32894826
 1.60108208 1.91882911 1.91882911 2.0767894  2.0767894  2.13829706
 2.47032779 2.61177856 2.7651121  3.08560703 3.08560703 3.55129666
 4.2278854  4.2278854  6.46548631 7.55282142]
  52 ( 0.750  0.250  0.000)   [-0.14423065  0.16065537  0.20348784  0.37036191] [0.77702934 0.85120571 0.93643766 0.99121643 1.22231622 1.34015034
 1.40877333 1.82847725 1.92970307 2.07824159 2.08983199 2.17410673
 2.44348589 2.68557809 2.75238762 2.92136984 3.09264656 3.15054752
 3.4295799  4.01896297 8.84848204 8.9817388 ]
  53 ( 0.750  0.250  0.250)   [-0.08752276  0.08519503  0.2340833   0.30249212] [0.71018221 0.90633982 0.95375713 0.97052794 1.2416756  1.36162269
 1.54219396 1.77950449 1.8527407  2.10486103 2.29161838 2.36418017
 2.49140117 2.51110695 2.62347692 2.71654623 2.94009574 3.26254312
 3.364771   3.62430257 7.51296323 9.13895556]
  54 ( 0.750  0.250  0.500)   [0.03910966 0.03911068 0.1781446  0.17814477] [0.87827892 0.87827923 0.9328699  0.93287016 1.27299862 1.27299882
 1.64859643 1.64859693 2.15836276 2.15836323 2.36060776 2.36060819
 2.39621034 2.39621149 2.67505228 2.67505243 2.67636417 2.6763645
 3.4560308  3.4560312  8.40956663 8.41160676]
  55 ( 0.750  0.250  0.750)   [-0.08752276  0.08519503  0.2340833   0.30249212] [0.71018221 0.90633982 0.95375713 0.97052794 1.2416756  1.36162269
 1.54219396 1.77950449 1.8527407  2.10486103 2.29161838 2.36418017
 2.49140117 2.51110695 2.62347692 2.71654623 2.94009574 3.26254312
 3.364771   3.62430257 7.51296323 9.13895556]
  56 ( 0.750  0.500  0.000)   [-0.08752276  0.08519503  0.2340833   0.30249212] [0.71018221 0.90633982 0.95375713 0.97052794 1.2416756  1.36162269
 1.54219396 1.77950449 1.8527407  2.10486103 2.29161838 2.36418017
 2.49140117 2.51110695 2.62347692 2.71654623 2.94009574 3.26254312
 3.364771   3.62430257 7.51296323 9.13895556]
  57 ( 0.750  0.500  0.250)   [0.03910966 0.03911068 0.1781446  0.17814477] [0.87827892 0.87827923 0.9328699  0.93287016 1.27299862 1.27299882
 1.64859643 1.64859693 2.15836276 2.15836323 2.36060776 2.36060819
 2.39621034 2.39621149 2.67505228 2.67505243 2.67636417 2.6763645
 3.4560308  3.4560312  8.40956663 8.41160676]
  58 ( 0.750  0.500  0.500)   [-0.08752276  0.08519503  0.2340833   0.30249212] [0.71018221 0.90633982 0.95375713 0.97052794 1.2416756  1.36162269
 1.54219396 1.77950449 1.8527407  2.10486103 2.29161838 2.36418017
 2.49140117 2.51110695 2.62347692 2.71654623 2.94009574 3.26254312
 3.364771   3.62430257 7.51296323 9.13895556]
  59 ( 0.750  0.500  0.750)   [-0.14423065  0.16065537  0.20348784  0.37036191] [0.77702934 0.85120571 0.93643766 0.99121643 1.22231622 1.34015034
 1.40877333 1.82847725 1.92970307 2.07824159 2.08983199 2.17410673
 2.44348589 2.68557809 2.75238762 2.92136984 3.09264656 3.15054752
 3.4295799  4.01896297 8.84848204 8.9817388 ]
  60 ( 0.750  0.750  0.000)   [-0.22369328  0.31336672  0.3302947   0.3302947 ] [0.6486763  0.86755808 0.90825736 0.90825736 1.27207397 1.32894826
 1.60108208 1.91882911 1.91882911 2.0767894  2.0767894  2.13829706
 2.47032779 2.61177856 2.7651121  3.08560703 3.08560703 3.55129666
 4.2278854  4.2278854  6.46548631 7.55282142]
  61 ( 0.750  0.750  0.250)   [-0.08752276  0.08519503  0.2340833   0.30249212] [0.71018221 0.90633982 0.95375713 0.97052794 1.2416756  1.36162269
 1.54219396 1.77950449 1.8527407  2.10486103 2.29161838 2.36418017
 2.49140117 2.51110695 2.62347692 2.71654623 2.94009574 3.26254312
 3.364771   3.62430257 7.51296323 9.13895556]
  62 ( 0.750  0.750  0.500)   [-0.14423065  0.16065537  0.20348784  0.37036191] [0.77702934 0.85120571 0.93643766 0.99121643 1.22231622 1.34015034
 1.40877333 1.82847725 1.92970307 2.07824159 2.08983199 2.17410673
 2.44348589 2.68557809 2.75238762 2.92136984 3.09264656 3.15054752
 3.4295799  4.01896297 8.84848204 8.9817388 ]
  63 ( 0.750  0.750  0.750)   [-0.24463343  0.23924283  0.41601989  0.41601989] [0.77029759 0.77029759 0.78061977 1.02378479 1.29476374 1.40991667
 1.40991667 1.91710189 2.08936927 2.08936927 2.16397133 2.16397133
 2.20549261 3.04948896 3.04948896 3.12228631 3.32699124 3.32699124
 3.83787779 3.83787779 4.99369176 8.9162235 ]
nelec by numeric integration = 8.00000000000012
    CPU time for vxc      8.84 sec, wall time      2.06 sec
    CPU time for vj and vk      4.28 sec, wall time      0.81 sec
Ewald components = 8.67997097708575e-26, -47.3756282134421, 34.5884981493536
E1 = (3.9930008026623187-1.4178484504089733e-17j)  Ecoul = 0.999827187876867  Exc = -3.5708420773442278
cycle= 2 E= -11.3651441508935  delta_E= -0.00825  |g|= 0.353  |ddm|= 81.5
    CPU time for cycle= 2     13.15 sec, wall time      2.90 sec
diis-norm(errvec)=0.552689
diis-c [-0.00165932-4.13474859e-19j  0.20005627+7.82918009e-20j
  0.79994373-7.82918009e-20j]
HOMO = 0.495472870995  LUMO = 0.657966832042
     k-point                  mo_energy
   0 ( 0.000  0.000  0.000)   [-0.29657794  0.49547287  0.49547287  0.49547287] [0.7012647  0.7012647  0.7012647  0.97575866 1.48917331 1.48917331
 1.75465859 1.75465859 1.75465859 1.77893164 2.26503191 2.26503191
 2.26503191 3.16593383 3.16593383 3.16593383 3.25616566 3.25616566
 4.30816513 4.30816513 4.30816513 4.85118294]
   1 ( 0.000  0.000  0.250)   [-0.23506724  0.25136697  0.43070468  0.43070468] [0.78274861 0.78274861 0.79318544 1.04008468 1.3032625  1.41545286
 1.41545286 1.92578642 2.10036986 2.10036986 2.1726909  2.1726909
 2.21494871 3.05998275 3.05998275 3.1323262  3.33571838 3.33571838
 3.84757776 3.84757776 5.00640641 8.94473777]
   2 ( 0.000  0.000  0.500)   [-0.085666    0.00140985  0.3917671   0.3917671 ] [0.80741865 0.80741865 0.816473   1.13427703 1.31754819 1.49574677
 1.49574677 1.78349663 1.78349663 2.1395881  2.22555711 2.5857875
 2.66980107 2.66980107 2.7179383  2.7179383  3.29243624 3.29243624
 3.35975166 3.35975166 4.78751054 9.36302793]
   3 ( 0.000  0.000  0.750)   [-0.23506724  0.25136697  0.43070468  0.43070468] [0.78274861 0.78274861 0.79318544 1.04008468 1.3032625  1.41545286
 1.41545286 1.92578642 2.10036986 2.10036986 2.1726909  2.1726909
 2.21494871 3.05998275 3.05998275 3.1323262  3.33571838 3.33571838
 3.84757776 3.84757776 5.00640641 8.94473777]
   4 (-0.000  0.250  0.000)   [-0.23506724  0.25136697  0.43070468  0.43070468] [0.78274861 0.78274861 0.79318544 1.04008468 1.3032625  1.41545286
 1.41545286 1.92578642 2.10036986 2.10036986 2.1726909  2.1726909
 2.21494871 3.05998275 3.05998275 3.1323262  3.33571838 3.33571838
 3.84757776 3.84757776 5.00640641 8.94473777]
   5 ( 0.000  0.250  0.250)   [-0.21397713  0.32753399  0.34336856  0.34336856] [0.65796683 0.87565674 0.9233005  0.9233005  1.28402557 1.33901506
 1.60652158 1.92863211 1.92863211 2.08581009 2.08581009 2.14284275
 2.48126971 2.61900756 2.7766219  3.09589864 3.09589864 3.56173676
 4.23863026 4.23863026 6.48438377 7.57476725]
   6 ( 0.000  0.250  0.500)   [-0.07668659  0.09629827  0.24597242  0.31547486] [0.71822615 0.9169007  0.9680104  0.98480824 1.25440132 1.37582064
 1.54992428 1.78650701 1.85946921 2.11183781 2.29975092 2.37291151
 2.5007548  2.52091618 2.63346435 2.72751851 2.94930818 3.27183211
 3.37331289 3.63284037 7.53485799 9.16906381]
   7 ( 0.000  0.250  0.750)   [-0.13396997  0.17295183  0.21431089  0.38440241] [0.7866916  0.86447363 0.9504382  1.0047484  1.2326652  1.34547796
 1.42167218 1.83395585 1.93515393 2.08943551 2.09894483 2.18311718
 2.4534758  2.6972002  2.76406089 2.9316308  3.1004375  3.15947605
 3.43822789 4.02633583 8.87615424 9.01083222]
   8 (-0.000  0.500  0.000)   [-0.085666    0.00140985  0.3917671   0.3917671 ] [0.80741865 0.80741865 0.816473   1.13427703 1.31754819 1.49574677
 1.49574677 1.78349663 1.78349663 2.1395881  2.22555711 2.5857875
 2.66980107 2.66980107 2.7179383  2.7179383  3.29243624 3.29243624
 3.35975166 3.35975166 4.78751054 9.36302793]
   9 (-0.000  0.500  0.250)   [-0.07668659  0.09629827  0.24597242  0.31547486] [0.71822615 0.9169007  0.9680104  0.98480824 1.25440132 1.37582064
 1.54992428 1.78650701 1.85946921 2.11183781 2.29975092 2.37291151
 2.5007548  2.52091618 2.63346435 2.72751851 2.94930818 3.27183211
 3.37331289 3.63284037 7.53485799 9.16906381]
  10 ( 0.000  0.500  0.500)   [0.02253612 0.02253613 0.26332172 0.26332172] [0.66918186 0.66918202 1.1153442  1.1153442  1.36308841 1.36309153
 1.73485779 1.73485779 1.96669592 1.96669638 2.41360426 2.41360426
 2.5134038  2.51340387 2.57288148 2.57288148 3.26321024 3.26321362
 4.63378185 4.63378185 6.58034692 6.58181764]
  11 ( 0.000  0.500  0.750)   [-0.07668659  0.09629827  0.24597242  0.31547486] [0.71822615 0.9169007  0.9680104  0.98480824 1.25440132 1.37582064
 1.54992428 1.78650701 1.85946921 2.11183781 2.29975092 2.37291151
 2.5007548  2.52091618 2.63346435 2.72751851 2.94930818 3.27183211
 3.37331289 3.63284037 7.53485799 9.16906381]
  12 (-0.000  0.750  0.000)   [-0.23506724  0.25136697  0.43070468  0.43070468] [0.78274861 0.78274861 0.79318544 1.04008468 1.3032625  1.41545286
 1.41545286 1.92578642 2.10036986 2.10036986 2.1726909  2.1726909
 2.21494871 3.05998275 3.05998275 3.1323262  3.33571838 3.33571838
 3.84757776 3.84757776 5.00640641 8.94473777]
  13 ( 0.000  0.750  0.250)   [-0.13396997  0.17295183  0.21431089  0.38440241] [0.7866916  0.86447363 0.9504382  1.0047484  1.2326652  1.34547796
 1.42167218 1.83395585 1.93515393 2.08943551 2.09894483 2.18311718
 2.4534758  2.6972002  2.76406089 2.9316308  3.1004375  3.15947605
 3.43822789 4.02633583 8.87615424 9.01083222]
  14 ( 0.000  0.750  0.500)   [-0.07668659  0.09629827  0.24597242  0.31547486] [0.71822615 0.9169007  0.9680104  0.98480824 1.25440132 1.37582064
 1.54992428 1.78650701 1.85946921 2.11183781 2.29975092 2.37291151
 2.5007548  2.52091618 2.63346435 2.72751851 2.94930818 3.27183211
 3.37331289 3.63284037 7.53485799 9.16906381]
  15 ( 0.000  0.750  0.750)   [-0.21397713  0.32753399  0.34336856  0.34336856] [0.65796683 0.87565674 0.9233005  0.9233005  1.28402557 1.33901506
 1.60652158 1.92863211 1.92863211 2.08581009 2.08581009 2.14284275
 2.48126971 2.61900756 2.7766219  3.09589864 3.09589864 3.56173676
 4.23863026 4.23863026 6.48438377 7.57476725]
  16 ( 0.250 -0.000 -0.000)   [-0.23506724  0.25136697  0.43070468  0.43070468] [0.78274861 0.78274861 0.79318544 1.04008468 1.3032625  1.41545286
 1.41545286 1.92578642 2.10036986 2.10036986 2.1726909  2.1726909
 2.21494871 3.05998275 3.05998275 3.1323262  3.33571838 3.33571838
 3.84757776 3.84757776 5.00640641 8.94473777]
  17 ( 0.250  0.000  0.250)   [-0.21397713  0.32753399  0.34336856  0.34336856] [0.65796683 0.87565674 0.9233005  0.9233005  1.28402557 1.33901506
 1.60652158 1.92863211 1.92863211 2.08581009 2.08581009 2.14284275
 2.48126971 2.61900756 2.7766219  3.09589864 3.09589864 3.56173676
 4.23863026 4.23863026 6.48438377 7.57476725]
  18 ( 0.250  0.000  0.500)   [-0.07668659  0.09629827  0.24597242  0.31547486] [0.71822615 0.9169007  0.9680104  0.98480824 1.25440132 1.37582064
 1.54992428 1.78650701 1.85946921 2.11183781 2.29975092 2.37291151
 2.5007548  2.52091618 2.63346435 2.72751851 2.94930818 3.27183211
 3.37331289 3.63284037 7.53485799 9.16906381]
  19 ( 0.250  0.000  0.750)   [-0.13396997  0.17295183  0.21431089  0.38440241] [0.7866916  0.86447363 0.9504382  1.0047484  1.2326652  1.34547796
 1.42167218 1.83395585 1.93515393 2.08943551 2.09894483 2.18311718
 2.4534758  2.6972002  2.76406089 2.9316308  3.1004375  3.15947605
 3.43822789 4.02633583 8.87615424 9.01083222]
  20 ( 0.250  0.250  0.000)   [-0.21397713  0.32753399  0.34336856  0.34336856] [0.65796683 0.87565674 0.9233005  0.9233005  1.28402557 1.33901506
 1.60652158 1.92863211 1.92863211 2.08581009 2.08581009 2.14284275
 2.48126971 2.61900756 2.7766219  3.09589864 3.09589864 3.56173676
 4.23863026 4.23863026 6.48438377 7.57476725]
  21 ( 0.250  0.250  0.250)   [-0.23506724  0.25136697  0.43070468  0.43070468] [0.78274861 0.78274861 0.79318544 1.04008468 1.3032625  1.41545286
 1.41545286 1.92578642 2.10036986 2.10036986 2.1726909  2.1726909
 2.21494871 3.05998275 3.05998275 3.1323262  3.33571838 3.33571838
 3.84757776 3.84757776 5.00640641 8.94473777]
  22 ( 0.250  0.250  0.500)   [-0.13396997  0.17295183  0.21431089  0.38440241] [0.7866916  0.86447363 0.9504382  1.0047484  1.2326652  1.34547796
 1.42167218 1.83395585 1.93515393 2.08943551 2.09894483 2.18311718
 2.4534758  2.6972002  2.76406089 2.9316308  3.1004375  3.15947605
 3.43822789 4.02633583 8.87615424 9.01083222]
  23 ( 0.250  0.250  0.750)   [-0.07668659  0.09629827  0.24597242  0.31547486] [0.71822615 0.9169007  0.9680104  0.98480824 1.25440132 1.37582064
 1.54992428 1.78650701 1.85946921 2.11183781 2.29975092 2.37291151
 2.5007548  2.52091618 2.63346435 2.72751851 2.94930818 3.27183211
 3.37331289 3.63284037 7.53485799 9.16906381]
  24 ( 0.250  0.500  0.000)   [-0.07668659  0.09629827  0.24597242  0.31547486] [0.71822615 0.9169007  0.9680104  0.98480824 1.25440132 1.37582064
 1.54992428 1.78650701 1.85946921 2.11183781 2.29975092 2.37291151
 2.5007548  2.52091618 2.63346435 2.72751851 2.94930818 3.27183211
 3.37331289 3.63284037 7.53485799 9.16906381]
  25 ( 0.250  0.500  0.250)   [-0.13396997  0.17295183  0.21431089  0.38440241] [0.7866916  0.86447363 0.9504382  1.0047484  1.2326652  1.34547796
 1.42167218 1.83395585 1.93515393 2.08943551 2.09894483 2.18311718
 2.4534758  2.6972002  2.76406089 2.9316308  3.1004375  3.15947605
 3.43822789 4.02633583 8.87615424 9.01083222]
  26 ( 0.250  0.500  0.500)   [-0.07668659  0.09629827  0.24597242  0.31547486] [0.71822615 0.9169007  0.9680104  0.98480824 1.25440132 1.37582064
 1.54992428 1.78650701 1.85946921 2.11183781 2.29975092 2.37291151
 2.5007548  2.52091618 2.63346435 2.72751851 2.94930818 3.27183211
 3.37331289 3.63284037 7.53485799 9.16906381]
  27 ( 0.250  0.500  0.750)   [0.05141229 0.05141238 0.18815554 0.18815573] [0.88747725 0.88747852 0.94700966 0.94701107 1.28712168 1.28712368
 1.65707529 1.65707713 2.16580083 2.1658017  2.36837926 2.36838046
 2.40324466 2.4032448  2.68437492 2.68437596 2.68825086 2.68825151
 3.46412348 3.46412431 8.43511856 8.43727491]
  28 ( 0.250  0.750  0.000)   [-0.13396997  0.17295183  0.21431089  0.38440241] [0.7866916  0.86447363 0.9504382  1.0047484  1.2326652  1.34547796
 1.42167218 1.83395585 1.93515393 2.08943551 2.09894483 2.18311718
 2.4534758  2.6972002  2.76406089 2.9316308  3.1004375  3.15947605
 3.43822789 4.02633583 8.87615424 9.01083222]
  29 ( 0.250  0.750  0.250)   [-0.07668659  0.09629827  0.24597242  0.31547486] [0.71822615 0.9169007  0.9680104  0.98480824 1.25440132 1.37582064
 1.54992428 1.78650701 1.85946921 2.11183781 2.29975092 2.37291151
 2.5007548  2.52091618 2.63346435 2.72751851 2.94930818 3.27183211
 3.37331289 3.63284037 7.53485799 9.16906381]
  30 ( 0.250  0.750  0.500)   [0.05141229 0.05141238 0.18815554 0.18815573] [0.88747725 0.88747852 0.94700966 0.94701107 1.28712168 1.28712368
 1.65707529 1.65707713 2.16580083 2.1658017  2.36837926 2.36838046
 2.40324466 2.4032448  2.68437492 2.68437596 2.68825086 2.68825151
 3.46412348 3.46412431 8.43511856 8.43727491]
  31 ( 0.250  0.750  0.750)   [-0.07668659  0.09629827  0.24597242  0.31547486] [0.71822615 0.9169007  0.9680104  0.98480824 1.25440132 1.37582064
 1.54992428 1.78650701 1.85946921 2.11183781 2.29975092 2.37291151
 2.5007548  2.52091618 2.63346435 2.72751851 2.94930818 3.27183211
 3.37331289 3.63284037 7.53485799 9.16906381]
  32 ( 0.500 -0.000 -0.000)   [-0.085666    0.00140985  0.3917671   0.3917671 ] [0.80741865 0.80741865 0.816473   1.13427703 1.31754819 1.49574677
 1.49574677 1.78349663 1.78349663 2.1395881  2.22555711 2.5857875
 2.66980107 2.66980107 2.7179383  2.7179383  3.29243624 3.29243624
 3.35975166 3.35975166 4.78751054 9.36302793]
  33 ( 0.500 -0.000  0.250)   [-0.07668659  0.09629827  0.24597242  0.31547486] [0.71822615 0.9169007  0.9680104  0.98480824 1.25440132 1.37582064
 1.54992428 1.78650701 1.85946921 2.11183781 2.29975092 2.37291151
 2.5007548  2.52091618 2.63346435 2.72751851 2.94930818 3.27183211
 3.37331289 3.63284037 7.53485799 9.16906381]
  34 ( 0.500  0.000  0.500)   [0.02253612 0.02253613 0.26332172 0.26332172] [0.66918186 0.66918202 1.1153442  1.1153442  1.36308841 1.36309153
 1.73485779 1.73485779 1.96669592 1.96669638 2.41360426 2.41360426
 2.5134038  2.51340387 2.57288148 2.57288148 3.26321024 3.26321362
 4.63378185 4.63378185 6.58034692 6.58181764]
  35 ( 0.500  0.000  0.750)   [-0.07668659  0.09629827  0.24597242  0.31547486] [0.71822615 0.9169007  0.9680104  0.98480824 1.25440132 1.37582064
 1.54992428 1.78650701 1.85946921 2.11183781 2.29975092 2.37291151
 2.5007548  2.52091618 2.63346435 2.72751851 2.94930818 3.27183211
 3.37331289 3.63284037 7.53485799 9.16906381]
  36 ( 0.500  0.250 -0.000)   [-0.07668659  0.09629827  0.24597242  0.31547486] [0.71822615 0.9169007  0.9680104  0.98480824 1.25440132 1.37582064
 1.54992428 1.78650701 1.85946921 2.11183781 2.29975092 2.37291151
 2.5007548  2.52091618 2.63346435 2.72751851 2.94930818 3.27183211
 3.37331289 3.63284037 7.53485799 9.16906381]
  37 ( 0.500  0.250  0.250)   [-0.13396997  0.17295183  0.21431089  0.38440241] [0.7866916  0.86447363 0.9504382  1.0047484  1.2326652  1.34547796
 1.42167218 1.83395585 1.93515393 2.08943551 2.09894483 2.18311718
 2.4534758  2.6972002  2.76406089 2.9316308  3.1004375  3.15947605
 3.43822789 4.02633583 8.87615424 9.01083222]
  38 ( 0.500  0.250  0.500)   [-0.07668659  0.09629827  0.24597242  0.31547486] [0.71822615 0.9169007  0.9680104  0.98480824 1.25440132 1.37582064
 1.54992428 1.78650701 1.85946921 2.11183781 2.29975092 2.37291151
 2.5007548  2.52091618 2.63346435 2.72751851 2.94930818 3.27183211
 3.37331289 3.63284037 7.53485799 9.16906381]
  39 ( 0.500  0.250  0.750)   [0.05141229 0.05141238 0.18815554 0.18815573] [0.88747725 0.88747852 0.94700966 0.94701107 1.28712168 1.28712368
 1.65707529 1.65707713 2.16580083 2.1658017  2.36837926 2.36838046
 2.40324466 2.4032448  2.68437492 2.68437596 2.68825086 2.68825151
 3.46412348 3.46412431 8.43511856 8.43727491]
  40 ( 0.500  0.500  0.000)   [0.02253612 0.02253613 0.26332172 0.26332172] [0.66918186 0.66918202 1.1153442  1.1153442  1.36308841 1.36309153
 1.73485779 1.73485779 1.96669592 1.96669638 2.41360426 2.41360426
 2.5134038  2.51340387 2.57288148 2.57288148 3.26321024 3.26321362
 4.63378185 4.63378186 6.58034692 6.58181764]
  41 ( 0.500  0.500  0.250)   [-0.07668659  0.09629827  0.24597242  0.31547486] [0.71822615 0.9169007  0.9680104  0.98480824 1.25440132 1.37582064
 1.54992428 1.78650701 1.85946921 2.11183781 2.29975092 2.37291151
 2.5007548  2.52091618 2.63346435 2.72751851 2.94930818 3.27183211
 3.37331289 3.63284037 7.53485799 9.16906381]
  42 ( 0.500  0.500  0.500)   [-0.085666    0.00140985  0.3917671   0.3917671 ] [0.80741865 0.80741865 0.816473   1.13427703 1.31754819 1.49574677
 1.49574677 1.78349663 1.78349663 2.1395881  2.22555711 2.5857875
 2.66980107 2.66980107 2.7179383  2.7179383  3.29243624 3.29243624
 3.35975166 3.35975166 4.78751054 9.36302793]
  43 ( 0.500  0.500  0.750)   [-0.07668659  0.09629827  0.24597242  0.31547486] [0.71822615 0.9169007  0.9680104  0.98480824 1.25440132 1.37582064
 1.54992428 1.78650701 1.85946921 2.11183781 2.29975092 2.37291151
 2.5007548  2.52091618 2.63346435 2.72751851 2.94930818 3.27183211
 3.37331289 3.63284037 7.53485799 9.16906381]
  44 ( 0.500  0.750  0.000)   [-0.07668659  0.09629827  0.24597242  0.31547486] [0.71822615 0.9169007  0.9680104  0.98480824 1.25440132 1.37582064
 1.54992428 1.78650701 1.85946921 2.11183781 2.29975092 2.37291151
 2.5007548  2.52091618 2.63346435 2.72751851 2.94930818 3.27183211
 3.37331289 3.63284037 7.53485799 9.16906381]
  45 ( 0.500  0.750  0.250)   [0.05141229 0.05141238 0.18815554 0.18815573] [0.88747725 0.88747852 0.94700966 0.94701107 1.28712168 1.28712368
 1.65707529 1.65707713 2.16580083 2.1658017  2.36837926 2.36838046
 2.40324466 2.4032448  2.68437492 2.68437596 2.68825086 2.68825151
 3.46412348 3.46412431 8.43511856 8.43727491]
  46 ( 0.500  0.750  0.500)   [-0.07668659  0.09629827  0.24597242  0.31547486] [0.71822615 0.9169007  0.9680104  0.98480824 1.25440132 1.37582064
 1.54992428 1.78650701 1.85946921 2.11183781 2.29975092 2.37291151
 2.5007548  2.52091618 2.63346435 2.72751851 2.94930818 3.27183211
 3.37331289 3.63284037 7.53485799 9.16906381]
  47 ( 0.500  0.750  0.750)   [-0.13396997  0.17295183  0.21431089  0.38440241] [0.7866916  0.86447363 0.9504382  1.0047484  1.2326652  1.34547796
 1.42167218 1.83395585 1.93515393 2.08943551 2.09894483 2.18311718
 2.4534758  2.6972002  2.76406089 2.9316308  3.1004375  3.15947605
 3.43822789 4.02633583 8.87615424 9.01083222]
  48 ( 0.750 -0.000 -0.000)   [-0.23506724  0.25136697  0.43070468  0.43070468] [0.78274861 0.78274861 0.79318544 1.04008468 1.3032625  1.41545286
 1.41545286 1.92578642 2.10036986 2.10036986 2.1726909  2.1726909
 2.21494871 3.05998275 3.05998275 3.1323262  3.33571838 3.33571838
 3.84757776 3.84757776 5.00640641 8.94473777]
  49 ( 0.750  0.000  0.250)   [-0.13396997  0.17295183  0.21431089  0.38440241] [0.7866916  0.86447363 0.9504382  1.0047484  1.2326652  1.34547796
 1.42167218 1.83395585 1.93515393 2.08943551 2.09894483 2.18311718
 2.4534758  2.6972002  2.76406089 2.9316308  3.1004375  3.15947605
 3.43822789 4.02633583 8.87615424 9.01083222]
  50 ( 0.750  0.000  0.500)   [-0.07668659  0.09629827  0.24597242  0.31547486] [0.71822615 0.9169007  0.9680104  0.98480824 1.25440132 1.37582064
 1.54992428 1.78650701 1.85946921 2.11183781 2.29975092 2.37291151
 2.5007548  2.52091618 2.63346435 2.72751851 2.94930818 3.27183211
 3.37331289 3.63284037 7.53485799 9.16906381]
  51 ( 0.750  0.000  0.750)   [-0.21397713  0.32753399  0.34336856  0.34336856] [0.65796683 0.87565674 0.9233005  0.9233005  1.28402557 1.33901506
 1.60652158 1.92863211 1.92863211 2.08581009 2.08581009 2.14284275
 2.48126971 2.61900756 2.7766219  3.09589864 3.09589864 3.56173676
 4.23863026 4.23863026 6.48438377 7.57476725]
  52 ( 0.750  0.250  0.000)   [-0.13396997  0.17295183  0.21431089  0.38440241] [0.7866916  0.86447363 0.9504382  1.0047484  1.2326652  1.34547796
 1.42167218 1.83395585 1.93515393 2.08943551 2.09894483 2.18311718
 2.4534758  2.6972002  2.76406089 2.9316308  3.1004375  3.15947605
 3.43822789 4.02633583 8.87615424 9.01083222]
  53 ( 0.750  0.250  0.250)   [-0.07668659  0.09629827  0.24597242  0.31547486] [0.71822615 0.9169007  0.9680104  0.98480824 1.25440132 1.37582064
 1.54992428 1.78650701 1.85946921 2.11183781 2.29975092 2.37291151
 2.5007548  2.52091618 2.63346435 2.72751851 2.94930818 3.27183211
 3.37331289 3.63284037 7.53485799 9.16906381]
  54 ( 0.750  0.250  0.500)   [0.05141229 0.05141238 0.18815554 0.18815573] [0.88747725 0.88747852 0.94700966 0.94701107 1.28712168 1.28712368
 1.65707529 1.65707713 2.16580083 2.1658017  2.36837926 2.36838046
 2.40324466 2.4032448  2.68437492 2.68437596 2.68825086 2.68825151
 3.46412348 3.46412431 8.43511856 8.43727491]
  55 ( 0.750  0.250  0.750)   [-0.07668659  0.09629827  0.24597242  0.31547486] [0.71822615 0.9169007  0.9680104  0.98480824 1.25440132 1.37582064
 1.54992428 1.78650701 1.85946921 2.11183781 2.29975092 2.37291151
 2.5007548  2.52091618 2.63346435 2.72751851 2.94930818 3.27183211
 3.37331289 3.63284037 7.53485799 9.16906381]
  56 ( 0.750  0.500  0.000)   [-0.07668659  0.09629827  0.24597242  0.31547486] [0.71822615 0.9169007  0.9680104  0.98480824 1.25440132 1.37582064
 1.54992428 1.78650701 1.85946921 2.11183781 2.29975092 2.37291151
 2.5007548  2.52091618 2.63346435 2.72751851 2.94930818 3.27183211
 3.37331289 3.63284037 7.53485799 9.16906381]
  57 ( 0.750  0.500  0.250)   [0.05141229 0.05141238 0.18815554 0.18815573] [0.88747725 0.88747852 0.94700966 0.94701107 1.28712168 1.28712368
 1.65707529 1.65707713 2.16580083 2.1658017  2.36837926 2.36838046
 2.40324466 2.4032448  2.68437492 2.68437596 2.68825086 2.68825151
 3.46412348 3.46412431 8.43511856 8.43727491]
  58 ( 0.750  0.500  0.500)   [-0.07668659  0.09629827  0.24597242  0.31547486] [0.71822615 0.9169007  0.9680104  0.98480824 1.25440132 1.37582064
 1.54992428 1.78650701 1.85946921 2.11183781 2.29975092 2.37291151
 2.5007548  2.52091618 2.63346435 2.72751851 2.94930818 3.27183211
 3.37331289 3.63284037 7.53485799 9.16906381]
  59 ( 0.750  0.500  0.750)   [-0.13396997  0.17295183  0.21431089  0.38440241] [0.7866916  0.86447363 0.9504382  1.0047484  1.2326652  1.34547796
 1.42167218 1.83395585 1.93515393 2.08943551 2.09894483 2.18311718
 2.4534758  2.6972002  2.76406089 2.9316308  3.1004375  3.15947605
 3.43822789 4.02633583 8.87615424 9.01083222]
  60 ( 0.750  0.750  0.000)   [-0.21397713  0.32753399  0.34336856  0.34336856] [0.65796683 0.87565674 0.9233005  0.9233005  1.28402557 1.33901506
 1.60652158 1.92863211 1.92863211 2.08581009 2.08581009 2.14284275
 2.48126971 2.61900756 2.7766219  3.09589864 3.09589864 3.56173676
 4.23863026 4.23863026 6.48438377 7.57476725]
  61 ( 0.750  0.750  0.250)   [-0.07668659  0.09629827  0.24597242  0.31547486] [0.71822615 0.9169007  0.9680104  0.98480824 1.25440132 1.37582064
 1.54992428 1.78650701 1.85946921 2.11183781 2.29975092 2.37291151
 2.5007548  2.52091618 2.63346435 2.72751851 2.94930818 3.27183211
 3.37331289 3.63284037 7.53485799 9.16906381]
  62 ( 0.750  0.750  0.500)   [-0.13396997  0.17295183  0.21431089  0.38440241] [0.7866916  0.86447363 0.9504382  1.0047484  1.2326652  1.34547796
 1.42167218 1.83395585 1.93515393 2.08943551 2.09894483 2.18311718
 2.4534758  2.6972002  2.76406089 2.9316308  3.1004375  3.15947605
 3.43822789 4.02633583 8.87615424 9.01083222]
  63 ( 0.750  0.750  0.750)   [-0.23506724  0.25136697  0.43070468  0.43070468] [0.78274861 0.78274861 0.79318544 1.04008468 1.3032625  1.41545286
 1.41545286 1.92578642 2.10036986 2.10036986 2.1726909  2.1726909
 2.21494871 3.05998275 3.05998275 3.1323262  3.33571838 3.33571838
 3.84757776 3.84757776 5.00640641 8.94473777]
nelec by numeric integration = 8.000000000000114
    CPU time for vxc      8.90 sec, wall time      2.06 sec
    CPU time for vj and vk      4.26 sec, wall time      0.81 sec
Ewald components = 8.67997097708575e-26, -47.3756282134421, 34.5884981493536
E1 = (4.00868051102581-8.318710574984484e-18j)  Ecoul = 0.9740643245473944  Exc = -3.5612629474008686
cycle= 3 E= -11.3656481759162  delta_E= -0.000504  |g|= 0.00437  |ddm|= 12.5
    CPU time for cycle= 3     13.19 sec, wall time      2.90 sec
diis-norm(errvec)=0.0082044
diis-c [-8.12812956e-07-2.49519921e-22j -5.70792817e-03+4.77002420e-18j
 -3.79237849e-02+1.93447482e-17j  1.04363171e+00-2.41147724e-17j]
HOMO = 0.495545315119  LUMO = 0.657951626261
     k-point                  mo_energy
   0 ( 0.000  0.000  0.000)   [-0.29657276  0.49554532  0.49554532  0.49554532] [0.70130523 0.70130523 0.70130523 0.97582381 1.48916996 1.48916996
 1.75458151 1.75458151 1.75458151 1.77871892 2.26502849 2.26502849
 2.26502849 3.16588855 3.16588855 3.16588855 3.2562035  3.2562035
 4.30815403 4.30815403 4.30815403 4.85096546]
   1 ( 0.000  0.000  0.250)   [-0.23506174  0.25140322  0.43076911  0.43076911] [0.78279159 0.78279159 0.79321342 1.04014132 1.3030823  1.41542451
 1.41542451 1.92573742 2.10035734 2.10035734 2.17268887 2.17268887
 2.21493443 3.06001059 3.06001059 3.13230181 3.33571937 3.33571937
 3.84751795 3.84751795 5.00622138 8.9447404 ]
   2 ( 0.000  0.000  0.500)   [-0.08562332  0.00139729  0.39183048  0.39183048] [0.80743987 0.80743987 0.81649637 1.13433207 1.31744505 1.49570292
 1.49570292 1.7834949  1.7834949  2.13954895 2.2254265  2.58578902
 2.66982929 2.66982929 2.71791796 2.71791796 3.29232604 3.29232604
 3.35976319 3.35976319 4.78733454 9.36304717]
[...]
memory = 0
int3c2e [1/1], AO [0:10], ncol = 676
Symmetry pattern (k + [ 0.93218535 -0.46609268  0.        ])*a= 2n pi
    make_kpt for [134 141 161 162]
kpt = [ 1.8643707  -0.46609268 -0.93218535]
adapted_ji_idx = [1187 1393]
memory = 0
int3c2e [1/1], AO [0:10], ncol = 676
kpt = [ 9.32185352e-01 -1.39827803e+00 -5.55111512e-17]
adapted_ji_idx = [1233 1284 1336 1443 1498 1554]
memory = 0
int3c2e [1/1], AO [0:10], ncol = 676
kpt = [ 0.93218535  0.46609268 -1.8643707 ]
adapted_ji_idx = [1599 1837]
memory = 0
int3c2e [1/1], AO [0:10], ncol = 676
kpt = [ 2.77555756e-17 -4.66092676e-01 -9.32185352e-01]
adapted_ji_idx = [1653 1712 1772 1895 1958 2022]
memory = 0
int3c2e [1/1], AO [0:10], ncol = 676
Cholesky decomposition for j2c at kpt 35
Symmetry pattern (k - [ 1.16523169 -0.23304634 -0.23304634])*a= 2n pi
    make_kpt for uniq_kptji_ids [35 47 62 65]
kpt = [ 1.16523169 -0.23304634 -0.23304634]
adapted_ji_idx = [ 146  164  224  246  554  588  696  734 1218 1268 1424 1478]
memory = 0
int3c2e [1/1], AO [0:10], ncol = 676
kpt = [ 0.23304634 -1.16523169  0.69913901]
adapted_ji_idx = [ 179  199  265  289  619  655  769  809 1315 1367 1529 1585]
memory = 0
int3c2e [1/1], AO [0:10], ncol = 676
kpt = [ 0.23304634  0.69913901 -1.16523169]
adapted_ji_idx = [ 302  328  412  442  838  880 1012 1058 1630 1688 1868 1930]
memory = 0
int3c2e [1/1], AO [0:10], ncol = 676
kpt = [-0.69913901 -0.23304634 -0.23304634]
adapted_ji_idx = [ 351  379  469  501  919  963 1101 1149 1743 1803 1989 2053]
memory = 0
int3c2e [1/1], AO [0:10], ncol = 676
Symmetry pattern (k + [ 1.16523169 -0.23304634 -0.23304634])*a= 2n pi
    make_kpt for [133 145 160 163]
kpt = [ 1.63132437 -0.69913901 -0.69913901]
adapted_ji_idx = [1186 1236 1392 1446]
memory = 0
int3c2e [1/1], AO [0:10], ncol = 676
kpt = [ 0.69913901 -1.63132437  0.23304634]
adapted_ji_idx = [1283 1335 1497 1553]
memory = 0
int3c2e [1/1], AO [0:10], ncol = 676
kpt = [ 0.69913901  0.23304634 -1.63132437]
adapted_ji_idx = [1598 1656 1836 1898]
memory = 0
int3c2e [1/1], AO [0:10], ncol = 676
kpt = [-0.23304634 -0.69913901 -0.69913901]
adapted_ji_idx = [1711 1771 1957 2021]
memory = 0
int3c2e [1/1], AO [0:10], ncol = 676
Cholesky decomposition for j2c at kpt 36
Symmetry pattern (k - [ 1.39827803  0.         -0.46609268])*a= 2n pi
    make_kpt for uniq_kptji_ids [36 43 63 64]
kpt = [ 1.39827803  0.         -0.46609268]
adapted_ji_idx = [ 147  225  555  697 1219 1425]
memory = 0
int3c2e [1/1], AO [0:10], ncol = 676
kpt = [ 0.46609268 -0.93218535  0.46609268]
adapted_ji_idx = [ 161  180  200  243  266  290  585  620  656  731  770  810 1265 1316
 1368 1475 1530 1586]
memory = 0
int3c2e [1/1], AO [0:10], ncol = 676
kpt = [ 0.46609268  0.93218535 -1.39827803]
adapted_ji_idx = [ 303  413  839 1013 1631 1869]
memory = 0
int3c2e [1/1], AO [0:10], ncol = 676
kpt = [-0.46609268  0.         -0.46609268]
adapted_ji_idx = [ 325  352  380  439  470  502  877  920  964 1055 1102 1150 1685 1744
 1804 1927 1990 2054]
memory = 0
int3c2e [1/1], AO [0:10], ncol = 676
Symmetry pattern (k + [ 1.39827803  0.         -0.46609268])*a= 2n pi
    make_kpt for [132 149 159 164]
kpt = [ 1.39827803 -0.93218535 -0.46609268]
adapted_ji_idx = [1185 1235 1286 1391 1445 1500]
memory = 0
int3c2e [1/1], AO [0:10], ncol = 676
kpt = [ 0.46609268 -1.8643707   0.46609268]
adapted_ji_idx = [1334 1552]
memory = 0
int3c2e [1/1], AO [0:10], ncol = 676
kpt = [ 4.66092676e-01 -2.77555756e-17 -1.39827803e+00]
adapted_ji_idx = [1597 1655 1714 1835 1897 1960]
memory = 0
int3c2e [1/1], AO [0:10], ncol = 676
kpt = [-0.46609268 -0.93218535 -0.46609268]
adapted_ji_idx = [1770 2020]
memory = 0
int3c2e [1/1], AO [0:10], ncol = 676
Cholesky decomposition for j2c at kpt 37
Symmetry pattern (k - [ 0.93218535 -0.93218535  0.46609268])*a= 2n pi
    make_kpt for uniq_kptji_ids [37 53]
kpt = [ 0.93218535 -0.93218535  0.46609268]
adapted_ji_idx = [ 148  166  185  205  556  590  625  661 1220 1270 1321 1373]
memory = 0
int3c2e [1/1], AO [0:10], ncol = 676
kpt = [ 0.          0.         -0.46609268]
adapted_ji_idx = [ 210  232  255  279  304  330  357  385  414  444  475  507  682  720
  759  799  840  882  925  969 1014 1060 1107 1155 1410 1464 1519 1575
 1632 1690 1749 1809 1870 1932 1995 2059]
memory = 0
int3c2e [1/1], AO [0:10], ncol = 676
Symmetry pattern (k + [ 0.93218535 -0.93218535  0.46609268])*a= 2n pi
    make_kpt for [127 165]
kpt = [ 0.93218535 -0.93218535 -0.46609268]
adapted_ji_idx = [1180 1230 1281 1333 1386 1440 1495 1551 1608 1666 1725 1785]
memory = 0
int3c2e [1/1], AO [0:10], ncol = 676
kpt = [ 2.77555756e-17 -2.77555756e-17 -1.39827803e+00]
adapted_ji_idx = [1830 1892 1955 2019]
memory = 0
int3c2e [1/1], AO [0:10], ncol = 676
Cholesky decomposition for j2c at kpt 38
Symmetry pattern (k - [ 1.16523169 -0.69913901  0.23304634])*a= 2n pi
    make_kpt for uniq_kptji_ids [38 52 54 59]
kpt = [ 1.16523169 -0.69913901  0.23304634]
adapted_ji_idx = [ 149  167  186  557  591  626 1221 1271 1322]
memory = 0
int3c2e [1/1], AO [0:10], ncol = 676
kpt = [ 0.23304634 -1.63132437  1.16523169]
adapted_ji_idx = [ 202  658 1370]
memory = 0
int3c2e [1/1], AO [0:10], ncol = 676
kpt = [ 0.23304634  0.23304634 -0.69913901]
adapted_ji_idx = [ 211  233  256  305  331  358  415  445  476  683  721  760  841  883
  926 1015 1061 1108 1411 1465 1520 1633 1691 1750 1871 1933 1996]
memory = 0
int3c2e [1/1], AO [0:10], ncol = 676
kpt = [-0.69913901 -0.69913901  0.23304634]
adapted_ji_idx = [ 276  382  504  796  966 1152 1572 1806 2056]
memory = 0
int3c2e [1/1], AO [0:10], ncol = 676
Symmetry pattern (k + [ 1.16523169 -0.69913901  0.23304634])*a= 2n pi
    make_kpt for [130 140 168 169]
kpt = [ 1.63132437 -0.23304634 -1.16523169]
adapted_ji_idx = [1183 1389 1611]
memory = 0
int3c2e [1/1], AO [0:10], ncol = 676
kpt = [ 0.69913901 -1.16523169 -0.23304634]
adapted_ji_idx = [1229 1280 1332 1439 1494 1550 1665 1724 1784]
memory = 0
int3c2e [1/1], AO [0:10], ncol = 676
kpt = [ 0.69913901  0.69913901 -2.09741704]
adapted_ji_idx = [1833]
memory = 0
int3c2e [1/1], AO [0:10], ncol = 676
kpt = [-0.23304634 -0.23304634 -1.16523169]
adapted_ji_idx = [1891 1954 2018]
memory = 0
int3c2e [1/1], AO [0:10], ncol = 676
Cholesky decomposition for j2c at kpt 39
Symmetry pattern (k - [ 1.39827803e+00 -4.66092676e-01  2.77555756e-17])*a= 2n pi
    make_kpt for uniq_kptji_ids [39 48 55 58]
kpt = [ 1.39827803e+00 -4.66092676e-01  2.77555756e-17]
adapted_ji_idx = [ 150  168  558  592 1222 1272]
memory = 0
int3c2e [1/1], AO [0:10], ncol = 676
kpt = [ 0.46609268 -1.39827803  0.93218535]
adapted_ji_idx = [ 183  203  623  659 1319 1371]
memory = 0
int3c2e [1/1], AO [0:10], ncol = 676
kpt = [ 0.46609268  0.46609268 -0.93218535]
adapted_ji_idx = [ 212  234  306  332  416  446  684  722  842  884 1016 1062 1412 1466
 1634 1692 1872 1934]
memory = 0
int3c2e [1/1], AO [0:10], ncol = 676
kpt = [-0.46609268 -0.46609268  0.        ]
adapted_ji_idx = [ 253  277  355  383  473  505  757  797  923  967 1105 1153 1517 1573
 1747 1807 1993 2057]
memory = 0
int3c2e [1/1], AO [0:10], ncol = 676
Symmetry pattern (k + [ 1.39827803e+00 -4.66092676e-01  2.77555756e-17])*a= 2n pi
    make_kpt for [129 144 167 170]
kpt = [ 1.39827803 -0.46609268 -0.93218535]
adapted_ji_idx = [1182 1232 1388 1442 1610 1668]
memory = 0
int3c2e [1/1], AO [0:10], ncol = 676
kpt = [ 4.66092676e-01 -1.39827803e+00 -2.77555756e-17]
adapted_ji_idx = [1279 1331 1493 1549 1723 1783]
memory = 0
int3c2e [1/1], AO [0:10], ncol = 676
kpt = [ 0.46609268  0.46609268 -1.8643707 ]
adapted_ji_idx = [1832 1894]
memory = 0
int3c2e [1/1], AO [0:10], ncol = 676
kpt = [-0.46609268 -0.46609268 -0.93218535]
adapted_ji_idx = [1953 2017]
memory = 0
int3c2e [1/1], AO [0:10], ncol = 676
Cholesky decomposition for j2c at kpt 40
Symmetry pattern (k - [ 1.63132437 -0.23304634 -0.23304634])*a= 2n pi
    make_kpt for uniq_kptji_ids [40 44 56 57]
kpt = [ 1.63132437 -0.23304634 -0.23304634]
adapted_ji_idx = [ 151  559 1223]
memory = 0
int3c2e [1/1], AO [0:10], ncol = 676
kpt = [ 0.69913901 -1.16523169  0.69913901]
adapted_ji_idx = [ 165  184  204  589  624  660 1269 1320 1372]
memory = 0
int3c2e [1/1], AO [0:10], ncol = 676
kpt = [ 0.69913901  0.69913901 -1.16523169]
adapted_ji_idx = [ 213  307  417  685  843 1017 1413 1635 1873]
memory = 0
int3c2e [1/1], AO [0:10], ncol = 676
kpt = [-0.23304634 -0.23304634 -0.23304634]
adapted_ji_idx = [ 231  254  278  329  356  384  443  474  506  719  758  798  881  924
  968 1059 1106 1154 1463 1518 1574 1689 1748 1808 1931 1994 2058]
memory = 0
int3c2e [1/1], AO [0:10], ncol = 676
Symmetry pattern (k + [ 1.63132437 -0.23304634 -0.23304634])*a= 2n pi
    make_kpt for [128 148 166 171]
kpt = [ 1.16523169 -0.69913901 -0.69913901]
adapted_ji_idx = [1181 1231 1282 1387 1441 1496 1609 1667 1726]
memory = 0
int3c2e [1/1], AO [0:10], ncol = 676
kpt = [ 0.23304634 -1.63132437  0.23304634]
adapted_ji_idx = [1330 1548 1782]
memory = 0
int3c2e [1/1], AO [0:10], ncol = 676
kpt = [ 0.23304634  0.23304634 -1.63132437]
adapted_ji_idx = [1831 1893 1956]
memory = 0
int3c2e [1/1], AO [0:10], ncol = 676
kpt = [-0.69913901 -0.69913901 -0.69913901]
adapted_ji_idx = [2016]
memory = 0
int3c2e [1/1], AO [0:10], ncol = 676
Cholesky decomposition for j2c at kpt 74
Symmetry pattern (k - [ 0.46609268 -0.46609268 -0.46609268])*a= 2n pi
    make_kpt for uniq_kptji_ids [74]
kpt = [ 0.46609268 -0.46609268 -0.46609268]
adapted_ji_idx = [ 528  562  597  633  670  708  747  787  828  870  913  957 1002 1048
 1095 1143 1192 1242 1293 1345 1398 1452 1507 1563 1620 1678 1737 1797
 1858 1920 1983 2047]
memory = 0
int3c2e [1/1], AO [0:10], ncol = 676
Symmetry pattern (k + [ 0.46609268 -0.46609268 -0.46609268])*a= 2n pi
    make_kpt for [74]
Cholesky decomposition for j2c at kpt 75
Symmetry pattern (k - [ 0.69913901 -0.23304634 -0.69913901])*a= 2n pi
    make_kpt for uniq_kptji_ids [75 98]
kpt = [ 0.69913901 -0.23304634 -0.69913901]
adapted_ji_idx = [ 529  563  598  671  709  748  829  871  914 1003 1049 1096 1193 1243
 1294 1399 1453 1508 1621 1679 1738 1859 1921 1984]
memory = 0
int3c2e [1/1], AO [0:10], ncol = 676
kpt = [-0.23304634 -1.16523169  0.23304634]
adapted_ji_idx = [ 630  784  954 1140 1342 1560 1794 2044]
memory = 0
int3c2e [1/1], AO [0:10], ncol = 676
Symmetry pattern (k + [ 0.69913901 -0.23304634 -0.69913901])*a= 2n pi
    make_kpt for [77 90]
kpt = [ 1.16523169  0.23304634 -1.16523169]
adapted_ji_idx = [ 531  673  831 1005 1195 1401 1623 1861]
memory = 0
int3c2e [1/1], AO [0:10], ncol = 676
kpt = [ 0.23304634 -0.69913901 -0.23304634]
adapted_ji_idx = [ 561  596  632  707  746  786  869  912  956 1047 1094 1142 1241 1292
 1344 1451 1506 1562 1677 1736 1796 1919 1982 2046]
memory = 0
int3c2e [1/1], AO [0:10], ncol = 676
Cholesky decomposition for j2c at kpt 76
Symmetry pattern (k - [ 0.93218535  0.         -0.93218535])*a= 2n pi
    make_kpt for uniq_kptji_ids [76 94]
kpt = [ 0.93218535  0.         -0.93218535]
adapted_ji_idx = [ 530  564  672  710  830  872 1004 1050 1194 1244 1400 1454 1622 1680
 1860 1922]
memory = 0
int3c2e [1/1], AO [0:10], ncol = 676
kpt = [ 0.         -0.93218535  0.        ]
adapted_ji_idx = [ 595  631  745  785  911  955 1093 1141 1291 1343 1505 1561 1735 1795
 1981 2045]
memory = 0
int3c2e [1/1], AO [0:10], ncol = 676
Symmetry pattern (k + [ 0.93218535  0.         -0.93218535])*a= 2n pi
    make_kpt for [76 94]
Cholesky decomposition for j2c at kpt 78
Symmetry pattern (k - [ 0.69913901 -0.69913901 -0.23304634])*a= 2n pi
    make_kpt for uniq_kptji_ids [ 78 116]
kpt = [ 0.69913901 -0.69913901 -0.23304634]
adapted_ji_idx = [ 532  566  601  637  674  712  751  791  832  874  917  961 1196 1246
 1297 1349 1402 1456 1511 1567 1624 1682 1741 1801]
memory = 0
int3c2e [1/1], AO [0:10], ncol = 676
kpt = [-0.23304634  0.23304634 -1.16523169]
adapted_ji_idx = [ 990 1036 1083 1131 1846 1908 1971 2035]
memory = 0
int3c2e [1/1], AO [0:10], ncol = 676
Symmetry pattern (k + [ 0.69913901 -0.69913901 -0.23304634])*a= 2n pi
    make_kpt for [ 86 102]
kpt = [ 1.16523169 -1.16523169  0.23304634]
adapted_ji_idx = [ 540  574  609  645 1204 1254 1305 1357]
memory = 0
int3c2e [1/1], AO [0:10], ncol = 676
kpt = [ 0.23304634 -0.23304634 -0.69913901]
adapted_ji_idx = [ 666  704  743  783  824  866  909  953  998 1044 1091 1139 1394 1448
 1503 1559 1616 1674 1733 1793 1854 1916 1979 2043]
memory = 0
int3c2e [1/1], AO [0:10], ncol = 676
Cholesky decomposition for j2c at kpt 79
Symmetry pattern (k - [ 0.93218535 -0.46609268 -0.46609268])*a= 2n pi
    make_kpt for uniq_kptji_ids [ 79  99 117 122]
kpt = [ 0.93218535 -0.46609268 -0.46609268]
adapted_ji_idx = [ 533  567  602  675  713  752  833  875  918 1197 1247 1298 1403 1457
 1512 1625 1683 1742]
memory = 0
int3c2e [1/1], AO [0:10], ncol = 676
kpt = [ 0.         -1.39827803  0.46609268]
adapted_ji_idx = [ 634  788  958 1346 1564 1798]
memory = 0
int3c2e [1/1], AO [0:10], ncol = 676
kpt = [ 0.          0.46609268 -1.39827803]
adapted_ji_idx = [ 991 1037 1084 1847 1909 1972]
memory = 0
int3c2e [1/1], AO [0:10], ncol = 676
kpt = [-0.93218535 -0.46609268 -0.46609268]
adapted_ji_idx = [1128 2032]
memory = 0
int3c2e [1/1], AO [0:10], ncol = 676
Symmetry pattern (k + [ 0.93218535 -0.46609268 -0.46609268])*a= 2n pi
    make_kpt for [ 89  93 105 106]
kpt = [ 1.8643707  -0.46609268 -0.46609268]
adapted_ji_idx = [ 543 1207]
memory = 0
int3c2e [1/1], AO [0:10], ncol = 676
kpt = [ 0.93218535 -1.39827803  0.46609268]
adapted_ji_idx = [ 573  608  644 1253 1304 1356]
memory = 0
int3c2e [1/1], AO [0:10], ncol = 676
kpt = [ 0.93218535  0.46609268 -1.39827803]
adapted_ji_idx = [ 669  827 1001 1397 1619 1857]
memory = 0
int3c2e [1/1], AO [0:10], ncol = 676
kpt = [ 0.         -0.46609268 -0.46609268]
adapted_ji_idx = [ 703  742  782  865  908  952 1043 1090 1138 1447 1502 1558 1673 1732
 1792 1915 1978 2042]
memory = 0
int3c2e [1/1], AO [0:10], ncol = 676
Cholesky decomposition for j2c at kpt 80
Symmetry pattern (k - [ 1.16523169 -0.23304634 -0.69913901])*a= 2n pi
    make_kpt for uniq_kptji_ids [ 80  95 118 121]
kpt = [ 1.16523169 -0.23304634 -0.69913901]
adapted_ji_idx = [ 534  568  676  714  834  876 1198 1248 1404 1458 1626 1684]
memory = 0
int3c2e [1/1], AO [0:10], ncol = 676
kpt = [ 0.23304634 -1.16523169  0.23304634]
adapted_ji_idx = [ 599  635  749  789  915  959 1295 1347 1509 1565 1739 1799]
memory = 0
int3c2e [1/1], AO [0:10], ncol = 676
kpt = [ 0.23304634  0.69913901 -1.63132437]
adapted_ji_idx = [ 992 1038 1848 1910]
memory = 0
int3c2e [1/1], AO [0:10], ncol = 676
kpt = [-0.69913901 -0.23304634 -0.69913901]
adapted_ji_idx = [1081 1129 1969 2033]
memory = 0
int3c2e [1/1], AO [0:10], ncol = 676
Symmetry pattern (k + [ 1.16523169 -0.23304634 -0.69913901])*a= 2n pi
    make_kpt for [ 88  97 104 107]
kpt = [ 1.63132437 -0.69913901 -0.23304634]
adapted_ji_idx = [ 542  576 1206 1256]
memory = 0
int3c2e [1/1], AO [0:10], ncol = 676
kpt = [ 0.69913901 -1.63132437  0.69913901]
adapted_ji_idx = [ 607  643 1303 1355]
memory = 0
int3c2e [1/1], AO [0:10], ncol = 676
kpt = [ 0.69913901  0.23304634 -1.16523169]
adapted_ji_idx = [ 668  706  826  868 1000 1046 1396 1450 1618 1676 1856 1918]
memory = 0
int3c2e [1/1], AO [0:10], ncol = 676
kpt = [-0.23304634 -0.69913901 -0.23304634]
adapted_ji_idx = [ 741  781  907  951 1089 1137 1501 1557 1731 1791 1977 2041]
memory = 0
int3c2e [1/1], AO [0:10], ncol = 676
Cholesky decomposition for j2c at kpt 81
Symmetry pattern (k - [ 1.39827803  0.         -0.93218535])*a= 2n pi
    make_kpt for uniq_kptji_ids [ 81  91 119 120]
kpt = [ 1.39827803  0.         -0.93218535]
adapted_ji_idx = [ 535  677  835 1199 1405 1627]
memory = 0
int3c2e [1/1], AO [0:10], ncol = 676
kpt = [ 0.46609268 -0.93218535  0.        ]
adapted_ji_idx = [ 565  600  636  711  750  790  873  916  960 1245 1296 1348 1455 1510
 1566 1681 1740 1800]
memory = 0
int3c2e [1/1], AO [0:10], ncol = 676
kpt = [ 0.46609268  0.93218535 -1.8643707 ]
adapted_ji_idx = [ 993 1849]
memory = 0
int3c2e [1/1], AO [0:10], ncol = 676
kpt = [-0.46609268  0.         -0.93218535]
adapted_ji_idx = [1035 1082 1130 1907 1970 2034]
memory = 0
int3c2e [1/1], AO [0:10], ncol = 676
Symmetry pattern (k + [ 1.39827803  0.         -0.93218535])*a= 2n pi
    make_kpt for [ 87 101 103 108]
kpt = [ 1.39827803e+00 -9.32185352e-01  5.55111512e-17]
adapted_ji_idx = [ 541  575  610 1205 1255 1306]
memory = 0
int3c2e [1/1], AO [0:10], ncol = 676
kpt = [ 0.46609268 -1.8643707   0.93218535]
adapted_ji_idx = [ 642 1354]
memory = 0
int3c2e [1/1], AO [0:10], ncol = 676
kpt = [ 0.46609268  0.         -0.93218535]
adapted_ji_idx = [ 667  705  744  825  867  910  999 1045 1092 1395 1449 1504 1617 1675
 1734 1855 1917 1980]
memory = 0
int3c2e [1/1], AO [0:10], ncol = 676
kpt = [-4.66092676e-01 -9.32185352e-01 -2.77555756e-17]
adapted_ji_idx = [ 780  950 1136 1556 1790 2040]
memory = 0
int3c2e [1/1], AO [0:10], ncol = 676
Cholesky decomposition for j2c at kpt 82
Symmetry pattern (k - [ 0.93218535 -0.93218535  0.        ])*a= 2n pi
    make_kpt for uniq_kptji_ids [ 82 109]
kpt = [ 0.93218535 -0.93218535  0.        ]
adapted_ji_idx = [ 536  570  605  641  678  716  755  795 1200 1250 1301 1353 1406 1460
 1515 1571]
memory = 0
int3c2e [1/1], AO [0:10], ncol = 676
kpt = [ 0.          0.         -0.93218535]
adapted_ji_idx = [ 820  862  905  949  994 1040 1087 1135 1612 1670 1729 1789 1850 1912
 1975 2039]
memory = 0
int3c2e [1/1], AO [0:10], ncol = 676
Symmetry pattern (k + [ 0.93218535 -0.93218535  0.        ])*a= 2n pi
    make_kpt for [ 82 109]
Cholesky decomposition for j2c at kpt 83
Symmetry pattern (k - [ 1.16523169 -0.69913901 -0.23304634])*a= 2n pi
    make_kpt for uniq_kptji_ids [ 83 100 110 115]
kpt = [ 1.16523169 -0.69913901 -0.23304634]
adapted_ji_idx = [ 537  571  606  679  717  756 1201 1251 1302 1407 1461 1516]
memory = 0
int3c2e [1/1], AO [0:10], ncol = 676
kpt = [ 0.23304634 -1.63132437  0.69913901]
adapted_ji_idx = [ 638  792 1350 1568]
memory = 0
int3c2e [1/1], AO [0:10], ncol = 676
kpt = [ 0.23304634  0.23304634 -1.16523169]
adapted_ji_idx = [ 821  863  906  995 1041 1088 1613 1671 1730 1851 1913 1976]
memory = 0
int3c2e [1/1], AO [0:10], ncol = 676
kpt = [-0.69913901 -0.69913901 -0.23304634]
adapted_ji_idx = [ 946 1132 1786 2036]
memory = 0
int3c2e [1/1], AO [0:10], ncol = 676
Symmetry pattern (k + [ 1.16523169 -0.69913901 -0.23304634])*a= 2n pi
    make_kpt for [ 85  92 112 113]
kpt = [ 1.63132437 -0.23304634 -0.69913901]
adapted_ji_idx = [ 539  681 1203 1409]
memory = 0
int3c2e [1/1], AO [0:10], ncol = 676
kpt = [ 0.69913901 -1.16523169  0.23304634]
adapted_ji_idx = [ 569  604  640  715  754  794 1249 1300 1352 1459 1514 1570]
memory = 0
int3c2e [1/1], AO [0:10], ncol = 676
kpt = [ 0.69913901  0.69913901 -1.63132437]
adapted_ji_idx = [ 823  997 1615 1853]
memory = 0
int3c2e [1/1], AO [0:10], ncol = 676
kpt = [-0.23304634 -0.23304634 -0.69913901]
adapted_ji_idx = [ 861  904  948 1039 1086 1134 1669 1728 1788 1911 1974 2038]
memory = 0
int3c2e [1/1], AO [0:10], ncol = 676
Cholesky decomposition for j2c at kpt 84
Symmetry pattern (k - [ 1.39827803 -0.46609268 -0.46609268])*a= 2n pi
    make_kpt for uniq_kptji_ids [ 84  96 111 114]
kpt = [ 1.39827803 -0.46609268 -0.46609268]
adapted_ji_idx = [ 538  572  680  718 1202 1252 1408 1462]
memory = 0
int3c2e [1/1], AO [0:10], ncol = 676
kpt = [ 0.46609268 -1.39827803  0.46609268]
adapted_ji_idx = [ 603  639  753  793 1299 1351 1513 1569]
memory = 0
int3c2e [1/1], AO [0:10], ncol = 676
kpt = [ 0.46609268  0.46609268 -1.39827803]
adapted_ji_idx = [ 822  864  996 1042 1614 1672 1852 1914]
memory = 0
int3c2e [1/1], AO [0:10], ncol = 676
kpt = [-0.46609268 -0.46609268 -0.46609268]
adapted_ji_idx = [ 903  947 1085 1133 1727 1787 1973 2037]
memory = 0
int3c2e [1/1], AO [0:10], ncol = 676
Symmetry pattern (k + [ 1.39827803 -0.46609268 -0.46609268])*a= 2n pi
    make_kpt for [ 84  96 111 114]
    CPU time for j3c   2765.68 sec, wall time    368.70 sec
    CPU time for transforming DF-MP2 integrals      9.78 sec, wall time      4.99 sec
    CPU time for KMP2   3014.68 sec, wall time    505.22 sec
KMP2 energy = -0.43973870218127
